<?xml version="1.0" encoding="UTF-8"?>

<!-- generated on 2020년 07월 03일 (금) 오전 10시 33분 10초 by Eclipse SUMO GUI Version v1_1_0+0000-2147d155b1
<configuration xmlns:xsi="http://www.w3.org/2001/XMLSchema-instance" xsi:noNamespaceSchemaLocation="http://sumo.dlr.de/xsd/sumoConfiguration.xsd">

    <input>
        <net-file value="/home/bmil02/flow/flow/core/kernel/network/debug/cfg/ring_example_20200703-1033081593739988.0457594.net.xml"/>
        <route-files value="/home/bmil02/flow/flow/core/kernel/network/debug/cfg/ring_example_20200703-1033081593739988.0457594.rou.xml"/>
        <additional-files value="/home/bmil02/flow/flow/core/kernel/network/debug/cfg/ring_example_20200703-1033081593739988.0457594.add.xml"/>
    </input>

    <output>
        <emission-output value="data/ring_example_20200703-1033081593739988.0457594-emission.xml"/>
    </output>

    <time>
        <begin value="0"/>
        <step-length value="0.1"/>
    </time>

    <processing>
        <collision.check-junctions value="true"/>
        <time-to-teleport value="-1"/>
    </processing>

    <report>
        <no-step-log value="true"/>
    </report>

    <traci_server>
        <remote-port value="43627"/>
        <num-clients value="1"/>
    </traci_server>

    <gui_only>
        <gui-settings-file value="/home/bmil02/flow/flow/core/kernel/network/debug/cfg/ring_example_20200703-1033081593739988.0457594.gui.cfg"/>
        <tracker-interval value="0.1"/>
    </gui_only>

</configuration>
-->

<emission-export xmlns:xsi="http://www.w3.org/2001/XMLSchema-instance" xsi:noNamespaceSchemaLocation="http://sumo.dlr.de/xsd/emission_file.xsd">
    <timestep time="0.00"/>
    <timestep time="0.10">
        <vehicle id="human_0" eclass="HBEFA3/PC_G_EU4" CO2="2624.72" CO="164.78" HC="0.81" NOx="1.20" PMx="0.07" fuel="1.13" electricity="0.00" noise="55.94" route="routebottom_0" type="human" waiting="0.00" lane="bottom_0" pos="0.00" speed="0.00" angle="93.92" x="36.71" y="-4.80"/>
        <vehicle id="human_1" eclass="HBEFA3/PC_G_EU4" CO2="2624.72" CO="164.78" HC="0.81" NOx="1.20" PMx="0.07" fuel="1.13" electricity="0.00" noise="55.94" route="routebottom_0" type="human" waiting="0.00" lane="bottom_1" pos="0.00" speed="0.00" angle="93.89" x="36.64" y="-1.60"/>
        <vehicle id="human_10" eclass="HBEFA3/PC_G_EU4" CO2="2624.72" CO="164.78" HC="0.81" NOx="1.20" PMx="0.07" fuel="1.13" electricity="0.00" noise="55.94" route="routeright_0" type="human" waiting="0.00" lane="right_0" pos="5.50" speed="0.00" angle="355.13" x="77.53" y="42.89"/>
        <vehicle id="human_11" eclass="HBEFA3/PC_G_EU4" CO2="2624.72" CO="164.78" HC="0.81" NOx="1.20" PMx="0.07" fuel="1.13" electricity="0.00" noise="55.94" route="routeright_0" type="human" waiting="0.00" lane="right_1" pos="6.05" speed="0.00" angle="354.39" x="74.29" y="42.91"/>
        <vehicle id="human_12" eclass="HBEFA3/PC_G_EU4" CO2="2624.72" CO="164.78" HC="0.81" NOx="1.20" PMx="0.07" fuel="1.13" electricity="0.00" noise="55.94" route="routeright_0" type="human" waiting="0.00" lane="right_0" pos="16.55" speed="0.00" angle="337.88" x="73.83" y="54.73"/>
        <vehicle id="human_13" eclass="HBEFA3/PC_G_EU4" CO2="2624.72" CO="164.78" HC="0.81" NOx="1.20" PMx="0.07" fuel="1.13" electricity="0.00" noise="55.94" route="routeright_0" type="human" waiting="0.00" lane="right_1" pos="17.43" speed="0.00" angle="336.62" x="70.56" y="54.13"/>
        <vehicle id="human_14" eclass="HBEFA3/PC_G_EU4" CO2="2624.72" CO="164.78" HC="0.81" NOx="1.20" PMx="0.07" fuel="1.13" electricity="0.00" noise="55.94" route="routeright_0" type="human" waiting="0.00" lane="right_0" pos="30.58" speed="0.00" angle="316.11" x="64.39" y="67.31"/>
        <vehicle id="human_15" eclass="HBEFA3/PC_G_EU4" CO2="2624.72" CO="164.78" HC="0.81" NOx="1.20" PMx="0.07" fuel="1.13" electricity="0.00" noise="55.94" route="routeright_0" type="human" waiting="0.00" lane="right_1" pos="29.76" speed="0.00" angle="317.46" x="62.87" y="64.36"/>
        <vehicle id="human_16" eclass="HBEFA3/PC_G_EU4" CO2="2624.72" CO="164.78" HC="0.81" NOx="1.20" PMx="0.07" fuel="1.13" electricity="0.00" noise="55.94" route="routeright_0" type="human" waiting="0.00" lane="right_0" pos="41.92" speed="0.00" angle="298.29" x="53.75" y="74.29"/>
        <vehicle id="human_17" eclass="HBEFA3/PC_G_EU4" CO2="2624.72" CO="164.78" HC="0.81" NOx="1.20" PMx="0.07" fuel="1.13" electricity="0.00" noise="55.94" route="routeright_0" type="human" waiting="0.00" lane="right_1" pos="42.85" speed="0.00" angle="296.97" x="51.51" y="71.79"/>
        <vehicle id="human_18" eclass="HBEFA3/PC_G_EU4" CO2="2624.72" CO="164.78" HC="0.81" NOx="1.20" PMx="0.07" fuel="1.13" electricity="0.00" noise="55.94" route="routeright_0" type="human" waiting="0.00" lane="right_0" pos="54.16" speed="0.00" angle="279.24" x="40.47" y="77.83"/>
        <vehicle id="human_19" eclass="HBEFA3/PC_G_EU4" CO2="2624.72" CO="164.78" HC="0.81" NOx="1.20" PMx="0.07" fuel="1.13" electricity="0.00" noise="55.94" route="routeright_0" type="human" waiting="0.00" lane="right_1" pos="54.50" speed="0.00" angle="278.69" x="39.77" y="74.68"/>
        <vehicle id="human_2" eclass="HBEFA3/PC_G_EU4" CO2="2624.72" CO="164.78" HC="0.81" NOx="1.20" PMx="0.07" fuel="1.13" electricity="0.00" noise="55.94" route="routebottom_0" type="human" waiting="0.00" lane="bottom_0" pos="13.64" speed="0.00" angle="72.44" x="51.73" y="-1.93"/>
        <vehicle id="human_20" eclass="HBEFA3/PC_G_EU4" CO2="2624.72" CO="164.78" HC="0.81" NOx="1.20" PMx="0.07" fuel="1.13" electricity="0.00" noise="55.94" route="routetop_0" type="human" waiting="0.00" lane="top_0" pos="8.42" speed="0.00" angle="260.65" x="27.10" y="76.90"/>
        <vehicle id="human_21" eclass="HBEFA3/PC_G_EU4" CO2="2624.72" CO="164.78" HC="0.81" NOx="1.20" PMx="0.07" fuel="1.13" electricity="0.00" noise="55.94" route="routetop_0" type="human" waiting="0.00" lane="top_1" pos="9.79" speed="0.00" angle="258.53" x="26.50" y="73.45"/>
        <vehicle id="human_22" eclass="HBEFA3/PC_G_EU4" CO2="2624.72" CO="164.78" HC="0.81" NOx="1.20" PMx="0.07" fuel="1.13" electricity="0.00" noise="55.94" route="routetop_0" type="human" waiting="0.00" lane="top_0" pos="21.58" speed="0.00" angle="240.12" x="13.57" y="71.00"/>
        <vehicle id="human_23" eclass="HBEFA3/PC_G_EU4" CO2="2624.72" CO="164.78" HC="0.81" NOx="1.20" PMx="0.07" fuel="1.13" electricity="0.00" noise="55.94" route="routetop_0" type="human" waiting="0.00" lane="top_1" pos="22.62" speed="0.00" angle="238.47" x="14.47" y="67.74"/>
        <vehicle id="human_24" eclass="HBEFA3/PC_G_EU4" CO2="2624.72" CO="164.78" HC="0.81" NOx="1.20" PMx="0.07" fuel="1.13" electricity="0.00" noise="55.94" route="routetop_0" type="human" waiting="0.00" lane="top_0" pos="33.01" speed="0.00" angle="222.07" x="4.15" y="62.29"/>
        <vehicle id="human_25" eclass="HBEFA3/PC_G_EU4" CO2="2624.72" CO="164.78" HC="0.81" NOx="1.20" PMx="0.07" fuel="1.13" electricity="0.00" noise="55.94" route="routetop_0" type="human" waiting="0.00" lane="top_1" pos="31.97" speed="0.00" angle="223.81" x="7.33" y="61.14"/>
        <vehicle id="human_26" eclass="HBEFA3/PC_G_EU4" CO2="2624.72" CO="164.78" HC="0.81" NOx="1.20" PMx="0.07" fuel="1.13" electricity="0.00" noise="55.94" route="routetop_0" type="human" waiting="0.00" lane="top_0" pos="44.73" speed="0.00" angle="203.95" x="-2.28" y="50.81"/>
        <vehicle id="human_27" eclass="HBEFA3/PC_G_EU4" CO2="2624.72" CO="164.78" HC="0.81" NOx="1.20" PMx="0.07" fuel="1.13" electricity="0.00" noise="55.94" route="routetop_0" type="human" waiting="0.00" lane="top_1" pos="46.16" speed="0.00" angle="201.69" x="0.23" y="48.27"/>
        <vehicle id="human_28" eclass="HBEFA3/PC_G_EU4" CO2="2624.72" CO="164.78" HC="0.81" NOx="1.20" PMx="0.07" fuel="1.13" electricity="0.00" noise="55.94" route="routeleft_0" type="human" waiting="0.00" lane="left_0" pos="0.83" speed="0.00" angle="182.56" x="-4.78" y="35.57"/>
        <vehicle id="human_29" eclass="HBEFA3/PC_G_EU4" CO2="2624.72" CO="164.78" HC="0.81" NOx="1.20" PMx="0.07" fuel="1.13" electricity="0.00" noise="55.94" route="routeleft_0" type="human" waiting="0.00" lane="left_1" pos="1.26" speed="0.00" angle="181.92" x="-1.57" y="35.27"/>
        <vehicle id="human_3" eclass="HBEFA3/PC_G_EU4" CO2="2624.72" CO="164.78" HC="0.81" NOx="1.20" PMx="0.07" fuel="1.13" electricity="0.00" noise="55.94" route="routebottom_0" type="human" waiting="0.00" lane="bottom_1" pos="12.20" speed="0.00" angle="74.68" x="49.12" y="0.52"/>
        <vehicle id="human_30" eclass="HBEFA3/PC_G_EU4" CO2="2624.72" CO="164.78" HC="0.81" NOx="1.20" PMx="0.07" fuel="1.13" electricity="0.00" noise="55.94" route="routeleft_0" type="human" waiting="0.00" lane="left_0" pos="12.79" speed="0.00" angle="163.82" x="-2.27" y="22.39"/>
        <vehicle id="human_31" eclass="HBEFA3/PC_G_EU4" CO2="2624.72" CO="164.78" HC="0.81" NOx="1.20" PMx="0.07" fuel="1.13" electricity="0.00" noise="55.94" route="routeleft_0" type="human" waiting="0.00" lane="left_1" pos="14.10" speed="0.00" angle="161.84" x="1.21" y="22.24"/>
        <vehicle id="human_32" eclass="HBEFA3/PC_G_EU4" CO2="2624.72" CO="164.78" HC="0.81" NOx="1.20" PMx="0.07" fuel="1.13" electricity="0.00" noise="55.94" route="routeleft_0" type="human" waiting="0.00" lane="left_0" pos="27.88" speed="0.00" angle="140.38" x="6.64" y="8.03"/>
        <vehicle id="human_33" eclass="HBEFA3/PC_G_EU4" CO2="2624.72" CO="164.78" HC="0.81" NOx="1.20" PMx="0.07" fuel="1.13" electricity="0.00" noise="55.94" route="routeleft_0" type="human" waiting="0.00" lane="left_1" pos="25.59" speed="0.00" angle="143.80" x="7.38" y="12.03"/>
        <vehicle id="human_34" eclass="HBEFA3/PC_G_EU4" CO2="2624.72" CO="164.78" HC="0.81" NOx="1.20" PMx="0.07" fuel="1.13" electricity="0.00" noise="55.94" route="routeleft_0" type="human" waiting="0.00" lane="left_0" pos="38.99" speed="0.00" angle="122.90" x="16.52" y="0.41"/>
        <vehicle id="human_35" eclass="HBEFA3/PC_G_EU4" CO2="2624.72" CO="164.78" HC="0.81" NOx="1.20" PMx="0.07" fuel="1.13" electricity="0.00" noise="55.94" route="routeleft_0" type="human" waiting="0.00" lane="left_1" pos="38.41" speed="0.00" angle="123.93" x="17.57" y="3.49"/>
        <vehicle id="human_4" eclass="HBEFA3/PC_G_EU4" CO2="2624.72" CO="164.78" HC="0.81" NOx="1.20" PMx="0.07" fuel="1.13" electricity="0.00" noise="55.94" route="routebottom_0" type="human" waiting="0.00" lane="bottom_0" pos="25.15" speed="0.00" angle="54.52" x="62.88" y="4.61"/>
        <vehicle id="human_5" eclass="HBEFA3/PC_G_EU4" CO2="2624.72" CO="164.78" HC="0.81" NOx="1.20" PMx="0.07" fuel="1.13" electricity="0.00" noise="55.94" route="routebottom_0" type="human" waiting="0.00" lane="bottom_1" pos="26.74" speed="0.00" angle="52.05" x="62.10" y="8.16"/>
        <vehicle id="human_6" eclass="HBEFA3/PC_G_EU4" CO2="2624.72" CO="164.78" HC="0.81" NOx="1.20" PMx="0.07" fuel="1.13" electricity="0.00" noise="55.94" route="routebottom_0" type="human" waiting="0.00" lane="bottom_0" pos="37.74" speed="0.00" angle="34.90" x="72.10" y="15.30"/>
        <vehicle id="human_7" eclass="HBEFA3/PC_G_EU4" CO2="2624.72" CO="164.78" HC="0.81" NOx="1.20" PMx="0.07" fuel="1.13" electricity="0.00" noise="55.94" route="routebottom_0" type="human" waiting="0.00" lane="bottom_1" pos="40.92" speed="0.00" angle="29.83" x="70.95" y="19.89"/>
        <vehicle id="human_8" eclass="HBEFA3/PC_G_EU4" CO2="2624.72" CO="164.78" HC="0.81" NOx="1.20" PMx="0.07" fuel="1.13" electricity="0.00" noise="55.94" route="routebottom_0" type="human" waiting="0.00" lane="bottom_0" pos="51.45" speed="0.00" angle="13.52" x="77.43" y="29.72"/>
    </timestep>
    <timestep time="0.20">
        <vehicle id="human_0" eclass="HBEFA3/PC_G_EU4" CO2="2742.21" CO="163.01" HC="0.81" NOx="1.25" PMx="0.07" fuel="1.18" electricity="0.00" noise="66.51" route="routebottom_0" type="human" waiting="0.00" lane="bottom_0" pos="0.02" speed="0.24" angle="93.88" x="36.74" y="-4.80"/>
        <vehicle id="human_1" eclass="HBEFA3/PC_G_EU4" CO2="2731.76" CO="162.96" HC="0.81" NOx="1.25" PMx="0.07" fuel="1.17" electricity="0.00" noise="66.09" route="routebottom_0" type="human" waiting="0.00" lane="bottom_1" pos="0.02" speed="0.23" angle="93.84" x="36.66" y="-1.60"/>
        <vehicle id="human_10" eclass="HBEFA3/PC_G_EU4" CO2="2718.23" CO="162.91" HC="0.81" NOx="1.24" PMx="0.07" fuel="1.17" electricity="0.00" noise="65.50" route="routeright_0" type="human" waiting="0.00" lane="right_0" pos="5.52" speed="0.22" angle="355.10" x="77.53" y="42.91"/>
        <vehicle id="human_11" eclass="HBEFA3/PC_G_EU4" CO2="2722.82" CO="162.93" HC="0.81" NOx="1.24" PMx="0.07" fuel="1.17" electricity="0.00" noise="65.71" route="routeright_0" type="human" waiting="0.00" lane="right_1" pos="6.07" speed="0.22" angle="354.35" x="74.28" y="42.94"/>
        <vehicle id="human_12" eclass="HBEFA3/PC_G_EU4" CO2="2744.29" CO="163.02" HC="0.81" NOx="1.25" PMx="0.07" fuel="1.18" electricity="0.00" noise="66.59" route="routeright_0" type="human" waiting="0.00" lane="right_0" pos="16.57" speed="0.24" angle="337.83" x="73.82" y="54.75"/>
        <vehicle id="human_13" eclass="HBEFA3/PC_G_EU4" CO2="2732.91" CO="162.97" HC="0.81" NOx="1.25" PMx="0.07" fuel="1.17" electricity="0.00" noise="66.13" route="routeright_0" type="human" waiting="0.00" lane="right_1" pos="17.45" speed="0.23" angle="336.59" x="70.55" y="54.15"/>
        <vehicle id="human_14" eclass="HBEFA3/PC_G_EU4" CO2="2722.18" CO="162.93" HC="0.81" NOx="1.24" PMx="0.07" fuel="1.17" electricity="0.00" noise="65.68" route="routeright_0" type="human" waiting="0.00" lane="right_0" pos="30.61" speed="0.22" angle="316.08" x="64.37" y="67.33"/>
        <vehicle id="human_15" eclass="HBEFA3/PC_G_EU4" CO2="2738.84" CO="162.99" HC="0.81" NOx="1.25" PMx="0.07" fuel="1.18" electricity="0.00" noise="66.38" route="routeright_0" type="human" waiting="0.00" lane="right_1" pos="29.78" speed="0.24" angle="317.41" x="62.86" y="64.37"/>
        <vehicle id="human_16" eclass="HBEFA3/PC_G_EU4" CO2="2732.12" CO="162.96" HC="0.81" NOx="1.25" PMx="0.07" fuel="1.17" electricity="0.00" noise="66.10" route="routeright_0" type="human" waiting="0.00" lane="right_0" pos="41.94" speed="0.23" angle="298.25" x="53.72" y="74.30"/>
        <vehicle id="human_17" eclass="HBEFA3/PC_G_EU4" CO2="2726.04" CO="162.94" HC="0.81" NOx="1.25" PMx="0.07" fuel="1.17" electricity="0.00" noise="65.85" route="routeright_0" type="human" waiting="0.00" lane="right_1" pos="42.87" speed="0.22" angle="296.93" x="51.49" y="71.80"/>
        <vehicle id="human_18" eclass="HBEFA3/PC_G_EU4" CO2="2728.97" CO="162.95" HC="0.81" NOx="1.25" PMx="0.07" fuel="1.17" electricity="0.00" noise="65.97" route="routeright_0" type="human" waiting="0.00" lane="right_0" pos="54.18" speed="0.23" angle="279.21" x="40.45" y="77.83"/>
        <vehicle id="human_19" eclass="HBEFA3/PC_G_EU4" CO2="2737.78" CO="162.99" HC="0.81" NOx="1.25" PMx="0.07" fuel="1.18" electricity="0.00" noise="66.33" route="routeright_0" type="human" waiting="0.00" lane="right_1" pos="54.52" speed="0.23" angle="278.65" x="39.74" y="74.68"/>
        <vehicle id="human_2" eclass="HBEFA3/PC_G_EU4" CO2="2724.37" CO="162.93" HC="0.81" NOx="1.25" PMx="0.07" fuel="1.17" electricity="0.00" noise="65.77" route="routebottom_0" type="human" waiting="0.00" lane="bottom_0" pos="13.67" speed="0.22" angle="72.40" x="51.76" y="-1.92"/>
        <vehicle id="human_20" eclass="HBEFA3/PC_G_EU4" CO2="2739.28" CO="163.00" HC="0.81" NOx="1.25" PMx="0.07" fuel="1.18" electricity="0.00" noise="66.39" route="routetop_0" type="human" waiting="0.00" lane="top_0" pos="8.45" speed="0.24" angle="260.62" x="27.07" y="76.90"/>
        <vehicle id="human_21" eclass="HBEFA3/PC_G_EU4" CO2="2736.97" CO="162.98" HC="0.81" NOx="1.25" PMx="0.07" fuel="1.18" electricity="0.00" noise="66.30" route="routetop_0" type="human" waiting="0.00" lane="top_1" pos="9.81" speed="0.23" angle="258.49" x="26.47" y="73.44"/>
        <vehicle id="human_22" eclass="HBEFA3/PC_G_EU4" CO2="2723.36" CO="162.93" HC="0.81" NOx="1.24" PMx="0.07" fuel="1.17" electricity="0.00" noise="65.73" route="routetop_0" type="human" waiting="0.00" lane="top_0" pos="21.61" speed="0.22" angle="240.09" x="13.55" y="70.99"/>
        <vehicle id="human_23" eclass="HBEFA3/PC_G_EU4" CO2="2681.52" CO="162.88" HC="0.80" NOx="1.23" PMx="0.07" fuel="1.15" electricity="0.00" noise="63.67" route="routetop_0" type="human" waiting="0.00" lane="top_1" pos="22.64" speed="0.17" angle="238.43" x="14.46" y="67.73"/>
        <vehicle id="human_24" eclass="HBEFA3/PC_G_EU4" CO2="2726.91" CO="162.94" HC="0.81" NOx="1.25" PMx="0.07" fuel="1.17" electricity="0.00" noise="65.88" route="routetop_0" type="human" waiting="0.00" lane="top_0" pos="33.03" speed="0.22" angle="222.04" x="4.14" y="62.28"/>
        <vehicle id="human_25" eclass="HBEFA3/PC_G_EU4" CO2="2745.03" CO="163.02" HC="0.81" NOx="1.25" PMx="0.07" fuel="1.18" electricity="0.00" noise="66.62" route="routetop_0" type="human" waiting="0.00" lane="top_1" pos="32.00" speed="0.24" angle="223.77" x="7.32" y="61.12"/>
        <vehicle id="human_26" eclass="HBEFA3/PC_G_EU4" CO2="2742.80" CO="163.01" HC="0.81" NOx="1.25" PMx="0.07" fuel="1.18" electricity="0.00" noise="66.54" route="routetop_0" type="human" waiting="0.00" lane="top_0" pos="44.76" speed="0.24" angle="203.91" x="-2.29" y="50.78"/>
        <vehicle id="human_27" eclass="HBEFA3/PC_G_EU4" CO2="2736.33" CO="162.98" HC="0.81" NOx="1.25" PMx="0.07" fuel="1.18" electricity="0.00" noise="66.27" route="routetop_0" type="human" waiting="0.00" lane="top_1" pos="46.19" speed="0.23" angle="201.65" x="0.23" y="48.25"/>
        <vehicle id="human_28" eclass="HBEFA3/PC_G_EU4" CO2="2729.35" CO="162.95" HC="0.81" NOx="1.25" PMx="0.07" fuel="1.17" electricity="0.00" noise="65.99" route="routeleft_0" type="human" waiting="0.00" lane="left_0" pos="0.86" speed="0.23" angle="182.53" x="-4.78" y="35.55"/>
        <vehicle id="human_29" eclass="HBEFA3/PC_G_EU4" CO2="2737.09" CO="162.98" HC="0.81" NOx="1.25" PMx="0.07" fuel="1.18" electricity="0.00" noise="66.31" route="routeleft_0" type="human" waiting="0.00" lane="left_1" pos="1.28" speed="0.23" angle="181.89" x="-1.57" y="35.24"/>
        <vehicle id="human_3" eclass="HBEFA3/PC_G_EU4" CO2="2746.60" CO="163.03" HC="0.81" NOx="1.26" PMx="0.07" fuel="1.18" electricity="0.00" noise="66.68" route="routebottom_0" type="human" waiting="0.00" lane="bottom_1" pos="12.23" speed="0.24" angle="74.64" x="49.15" y="0.53"/>
        <vehicle id="human_30" eclass="HBEFA3/PC_G_EU4" CO2="2748.77" CO="163.04" HC="0.81" NOx="1.26" PMx="0.07" fuel="1.18" electricity="0.00" noise="66.77" route="routeleft_0" type="human" waiting="0.00" lane="left_0" pos="12.81" speed="0.24" angle="163.78" x="-2.26" y="22.36"/>
        <vehicle id="human_31" eclass="HBEFA3/PC_G_EU4" CO2="2724.12" CO="162.93" HC="0.81" NOx="1.25" PMx="0.07" fuel="1.17" electricity="0.00" noise="65.76" route="routeleft_0" type="human" waiting="0.00" lane="left_1" pos="14.13" speed="0.22" angle="161.81" x="1.22" y="22.22"/>
        <vehicle id="human_32" eclass="HBEFA3/PC_G_EU4" CO2="2719.12" CO="162.92" HC="0.81" NOx="1.24" PMx="0.07" fuel="1.17" electricity="0.00" noise="65.54" route="routeleft_0" type="human" waiting="0.00" lane="left_0" pos="27.90" speed="0.22" angle="140.35" x="6.66" y="8.02"/>
        <vehicle id="human_33" eclass="HBEFA3/PC_G_EU4" CO2="2736.89" CO="162.98" HC="0.81" NOx="1.25" PMx="0.07" fuel="1.18" electricity="0.00" noise="66.30" route="routeleft_0" type="human" waiting="0.00" lane="left_1" pos="25.61" speed="0.23" angle="143.76" x="7.39" y="12.01"/>
        <vehicle id="human_34" eclass="HBEFA3/PC_G_EU4" CO2="2757.22" CO="163.09" HC="0.81" NOx="1.26" PMx="0.07" fuel="1.19" electricity="0.00" noise="67.09" route="routeleft_0" type="human" waiting="0.00" lane="left_0" pos="39.01" speed="0.25" angle="122.86" x="16.55" y="0.40"/>
        <vehicle id="human_35" eclass="HBEFA3/PC_G_EU4" CO2="2758.04" CO="163.10" HC="0.81" NOx="1.26" PMx="0.07" fuel="1.19" electricity="0.00" noise="67.12" route="routeleft_0" type="human" waiting="0.00" lane="left_1" pos="38.43" speed="0.25" angle="123.88" x="17.59" y="3.48"/>
        <vehicle id="human_4" eclass="HBEFA3/PC_G_EU4" CO2="2735.11" CO="162.98" HC="0.81" NOx="1.25" PMx="0.07" fuel="1.18" electricity="0.00" noise="66.23" route="routebottom_0" type="human" waiting="0.00" lane="bottom_0" pos="25.17" speed="0.23" angle="54.48" x="62.90" y="4.63"/>
        <vehicle id="human_5" eclass="HBEFA3/PC_G_EU4" CO2="2744.99" CO="163.02" HC="0.81" NOx="1.25" PMx="0.07" fuel="1.18" electricity="0.00" noise="66.62" route="routebottom_0" type="human" waiting="0.00" lane="bottom_1" pos="26.76" speed="0.24" angle="52.01" x="62.12" y="8.17"/>
        <vehicle id="human_6" eclass="HBEFA3/PC_G_EU4" CO2="2742.59" CO="163.01" HC="0.81" NOx="1.25" PMx="0.07" fuel="1.18" electricity="0.00" noise="66.53" route="routebottom_0" type="human" waiting="0.00" lane="bottom_0" pos="37.76" speed="0.24" angle="34.87" x="72.12" y="15.33"/>
        <vehicle id="human_7" eclass="HBEFA3/PC_G_EU4" CO2="2761.47" CO="163.12" HC="0.81" NOx="1.26" PMx="0.07" fuel="1.19" electricity="0.00" noise="67.25" route="routebottom_0" type="human" waiting="0.00" lane="bottom_1" pos="40.95" speed="0.25" angle="29.80" x="70.96" y="19.91"/>
        <vehicle id="human_8" eclass="HBEFA3/PC_G_EU4" CO2="2726.65" CO="162.94" HC="0.81" NOx="1.25" PMx="0.07" fuel="1.17" electricity="0.00" noise="65.87" route="routebottom_0" type="human" waiting="0.00" lane="bottom_0" pos="51.47" speed="0.22" angle="13.49" x="77.44" y="29.74"/>
    </timestep>
    <timestep time="0.30">
        <vehicle id="human_0" eclass="HBEFA3/PC_G_EU4" CO2="2853.05" CO="161.23" HC="0.80" NOx="1.30" PMx="0.07" fuel="1.23" electricity="0.00" noise="66.41" route="routebottom_0" type="human" waiting="0.00" lane="bottom_0" pos="0.07" speed="0.47" angle="93.79" x="36.79" y="-4.80"/>
        <vehicle id="human_1" eclass="HBEFA3/PC_G_EU4" CO2="2829.77" CO="161.11" HC="0.80" NOx="1.29" PMx="0.07" fuel="1.22" electricity="0.00" noise="65.91" route="routebottom_0" type="human" waiting="0.00" lane="bottom_1" pos="0.07" speed="0.45" angle="93.76" x="36.71" y="-1.60"/>
        <vehicle id="human_10" eclass="HBEFA3/PC_G_EU4" CO2="2800.25" CO="160.99" HC="0.80" NOx="1.28" PMx="0.07" fuel="1.20" electricity="0.00" noise="65.23" route="routeright_0" type="human" waiting="0.00" lane="right_0" pos="5.56" speed="0.42" angle="355.04" x="77.52" y="42.96"/>
        <vehicle id="human_11" eclass="HBEFA3/PC_G_EU4" CO2="2810.13" CO="161.02" HC="0.80" NOx="1.28" PMx="0.07" fuel="1.21" electricity="0.00" noise="65.46" route="routeright_0" type="human" waiting="0.00" lane="right_1" pos="6.11" speed="0.43" angle="354.27" x="74.28" y="42.98"/>
        <vehicle id="human_12" eclass="HBEFA3/PC_G_EU4" CO2="2857.74" CO="161.25" HC="0.80" NOx="1.30" PMx="0.07" fuel="1.23" electricity="0.00" noise="66.51" route="routeright_0" type="human" waiting="0.00" lane="right_0" pos="16.62" speed="0.48" angle="337.74" x="73.79" y="54.80"/>
        <vehicle id="human_13" eclass="HBEFA3/PC_G_EU4" CO2="2832.30" CO="161.12" HC="0.80" NOx="1.29" PMx="0.07" fuel="1.22" electricity="0.00" noise="65.96" route="routeright_0" type="human" waiting="0.00" lane="right_1" pos="17.50" speed="0.45" angle="336.52" x="70.52" y="54.19"/>
        <vehicle id="human_14" eclass="HBEFA3/PC_G_EU4" CO2="2808.74" CO="161.02" HC="0.80" NOx="1.28" PMx="0.07" fuel="1.21" electricity="0.00" noise="65.43" route="routeright_0" type="human" waiting="0.00" lane="right_0" pos="30.65" speed="0.43" angle="316.01" x="64.33" y="67.36"/>
        <vehicle id="human_15" eclass="HBEFA3/PC_G_EU4" CO2="2845.46" CO="161.18" HC="0.80" NOx="1.30" PMx="0.07" fuel="1.22" electricity="0.00" noise="66.25" route="routeright_0" type="human" waiting="0.00" lane="right_1" pos="29.83" speed="0.47" angle="317.32" x="62.82" y="64.41"/>
        <vehicle id="human_16" eclass="HBEFA3/PC_G_EU4" CO2="2830.53" CO="161.11" HC="0.80" NOx="1.29" PMx="0.07" fuel="1.22" electricity="0.00" noise="65.92" route="routeright_0" type="human" waiting="0.00" lane="right_0" pos="41.98" speed="0.45" angle="298.19" x="53.68" y="74.32"/>
        <vehicle id="human_17" eclass="HBEFA3/PC_G_EU4" CO2="2817.18" CO="161.05" HC="0.80" NOx="1.28" PMx="0.07" fuel="1.21" electricity="0.00" noise="65.63" route="routeright_0" type="human" waiting="0.00" lane="right_1" pos="42.92" speed="0.44" angle="296.84" x="51.44" y="71.82"/>
        <vehicle id="human_18" eclass="HBEFA3/PC_G_EU4" CO2="2823.61" CO="161.08" HC="0.80" NOx="1.29" PMx="0.07" fuel="1.21" electricity="0.00" noise="65.77" route="routeright_0" type="human" waiting="0.00" lane="right_0" pos="54.22" speed="0.45" angle="279.15" x="40.40" y="77.83"/>
        <vehicle id="human_19" eclass="HBEFA3/PC_G_EU4" CO2="2843.12" CO="161.17" HC="0.80" NOx="1.29" PMx="0.07" fuel="1.22" electricity="0.00" noise="66.20" route="routeright_0" type="human" waiting="0.00" lane="right_1" pos="54.57" speed="0.46" angle="278.58" x="39.69" y="74.69"/>
        <vehicle id="human_2" eclass="HBEFA3/PC_G_EU4" CO2="2813.52" CO="161.04" HC="0.80" NOx="1.28" PMx="0.07" fuel="1.21" electricity="0.00" noise="65.54" route="routebottom_0" type="human" waiting="0.00" lane="bottom_0" pos="13.71" speed="0.44" angle="72.32" x="51.80" y="-1.90"/>
        <vehicle id="human_20" eclass="HBEFA3/PC_G_EU4" CO2="2846.45" CO="161.19" HC="0.80" NOx="1.30" PMx="0.07" fuel="1.22" electricity="0.00" noise="66.27" route="routetop_0" type="human" waiting="0.00" lane="top_0" pos="8.49" speed="0.47" angle="260.56" x="27.02" y="76.88"/>
        <vehicle id="human_21" eclass="HBEFA3/PC_G_EU4" CO2="2841.15" CO="161.16" HC="0.80" NOx="1.29" PMx="0.07" fuel="1.22" electricity="0.00" noise="66.15" route="routetop_0" type="human" waiting="0.00" lane="top_1" pos="9.86" speed="0.46" angle="258.43" x="26.43" y="73.43"/>
        <vehicle id="human_22" eclass="HBEFA3/PC_G_EU4" CO2="2811.29" CO="161.03" HC="0.80" NOx="1.28" PMx="0.07" fuel="1.21" electricity="0.00" noise="65.49" route="routetop_0" type="human" waiting="0.00" lane="top_0" pos="21.65" speed="0.43" angle="240.03" x="13.51" y="70.96"/>
        <vehicle id="human_23" eclass="HBEFA3/PC_G_EU4" CO2="2724.37" CO="160.93" HC="0.80" NOx="1.24" PMx="0.07" fuel="1.17" electricity="0.00" noise="63.21" route="routetop_0" type="human" waiting="0.00" lane="top_1" pos="22.67" speed="0.34" angle="238.37" x="14.43" y="67.71"/>
        <vehicle id="human_24" eclass="HBEFA3/PC_G_EU4" CO2="2819.10" CO="161.06" HC="0.80" NOx="1.28" PMx="0.07" fuel="1.21" electricity="0.00" noise="65.67" route="routetop_0" type="human" waiting="0.00" lane="top_0" pos="33.07" speed="0.44" angle="221.98" x="4.11" y="62.24"/>
        <vehicle id="human_25" eclass="HBEFA3/PC_G_EU4" CO2="2859.43" CO="161.26" HC="0.80" NOx="1.30" PMx="0.07" fuel="1.23" electricity="0.00" noise="66.54" route="routetop_0" type="human" waiting="0.00" lane="top_1" pos="32.05" speed="0.48" angle="223.70" x="7.28" y="61.08"/>
        <vehicle id="human_26" eclass="HBEFA3/PC_G_EU4" CO2="2854.39" CO="161.23" HC="0.80" NOx="1.30" PMx="0.07" fuel="1.23" electricity="0.00" noise="66.44" route="routetop_0" type="human" waiting="0.00" lane="top_0" pos="44.80" speed="0.47" angle="203.82" x="-2.30" y="50.73"/>
        <vehicle id="human_27" eclass="HBEFA3/PC_G_EU4" CO2="2839.89" CO="161.16" HC="0.80" NOx="1.29" PMx="0.07" fuel="1.22" electricity="0.00" noise="66.13" route="routetop_0" type="human" waiting="0.00" lane="top_1" pos="46.23" speed="0.46" angle="201.56" x="0.21" y="48.20"/>
        <vehicle id="human_28" eclass="HBEFA3/PC_G_EU4" CO2="2824.47" CO="161.08" HC="0.80" NOx="1.29" PMx="0.07" fuel="1.21" electricity="0.00" noise="65.79" route="routeleft_0" type="human" waiting="0.00" lane="left_0" pos="0.90" speed="0.45" angle="182.47" x="-4.78" y="35.50"/>
        <vehicle id="human_29" eclass="HBEFA3/PC_G_EU4" CO2="2841.54" CO="161.16" HC="0.80" NOx="1.29" PMx="0.07" fuel="1.22" electricity="0.00" noise="66.16" route="routeleft_0" type="human" waiting="0.00" lane="left_1" pos="1.33" speed="0.46" angle="181.83" x="-1.57" y="35.20"/>
        <vehicle id="human_3" eclass="HBEFA3/PC_G_EU4" CO2="2863.01" CO="161.28" HC="0.80" NOx="1.30" PMx="0.07" fuel="1.23" electricity="0.00" noise="66.61" route="routebottom_0" type="human" waiting="0.00" lane="bottom_1" pos="12.27" speed="0.48" angle="74.55" x="49.19" y="0.54"/>
        <vehicle id="human_30" eclass="HBEFA3/PC_G_EU4" CO2="2867.91" CO="161.31" HC="0.80" NOx="1.31" PMx="0.07" fuel="1.23" electricity="0.00" noise="66.71" route="routeleft_0" type="human" waiting="0.00" lane="left_0" pos="12.86" speed="0.48" angle="163.72" x="-2.24" y="22.31"/>
        <vehicle id="human_31" eclass="HBEFA3/PC_G_EU4" CO2="2812.97" CO="161.03" HC="0.80" NOx="1.28" PMx="0.07" fuel="1.21" electricity="0.00" noise="65.53" route="routeleft_0" type="human" waiting="0.00" lane="left_1" pos="14.17" speed="0.44" angle="161.75" x="1.24" y="22.18"/>
        <vehicle id="human_32" eclass="HBEFA3/PC_G_EU4" CO2="2802.22" CO="160.99" HC="0.80" NOx="1.28" PMx="0.07" fuel="1.20" electricity="0.00" noise="65.28" route="routeleft_0" type="human" waiting="0.00" lane="left_0" pos="27.94" speed="0.43" angle="140.29" x="6.69" y="7.98"/>
        <vehicle id="human_33" eclass="HBEFA3/PC_G_EU4" CO2="2841.19" CO="161.16" HC="0.80" NOx="1.29" PMx="0.07" fuel="1.22" electricity="0.00" noise="66.16" route="routeleft_0" type="human" waiting="0.00" lane="left_1" pos="25.66" speed="0.46" angle="143.69" x="7.42" y="11.97"/>
        <vehicle id="human_34" eclass="HBEFA3/PC_G_EU4" CO2="2887.32" CO="161.44" HC="0.80" NOx="1.31" PMx="0.07" fuel="1.24" electricity="0.00" noise="67.10" route="routeleft_0" type="human" waiting="0.00" lane="left_0" pos="39.06" speed="0.50" angle="122.79" x="16.60" y="0.37"/>