<?xml version="1.0" encoding="UTF-8"?>

<!-- generated on 2020년 07월 03일 (금) 오전 10시 32분 55초 by Eclipse SUMO GUI Version v1_1_0+0000-2147d155b1
<configuration xmlns:xsi="http://www.w3.org/2001/XMLSchema-instance" xsi:noNamespaceSchemaLocation="http://sumo.dlr.de/xsd/sumoConfiguration.xsd">

    <input>
        <net-file value="/home/bmil02/flow/flow/core/kernel/network/debug/cfg/ring_example_20200703-1032531593739973.677952.net.xml"/>
        <route-files value="/home/bmil02/flow/flow/core/kernel/network/debug/cfg/ring_example_20200703-1032531593739973.677952.rou.xml"/>
        <additional-files value="/home/bmil02/flow/flow/core/kernel/network/debug/cfg/ring_example_20200703-1032531593739973.677952.add.xml"/>
    </input>

    <output>
        <emission-output value="data/ring_example_20200703-1032531593739973.677952-emission.xml"/>
    </output>

    <time>
        <begin value="0"/>
        <step-length value="0.1"/>
    </time>

    <processing>
        <collision.check-junctions value="true"/>
        <time-to-teleport value="-1"/>
    </processing>

    <report>
        <no-step-log value="true"/>
    </report>

    <traci_server>
        <remote-port value="54151"/>
        <num-clients value="1"/>
    </traci_server>

    <gui_only>
        <gui-settings-file value="/home/bmil02/flow/flow/core/kernel/network/debug/cfg/ring_example_20200703-1032531593739973.677952.gui.cfg"/>
        <tracker-interval value="0.1"/>
    </gui_only>

</configuration>
-->

<emission-export xmlns:xsi="http://www.w3.org/2001/XMLSchema-instance" xsi:noNamespaceSchemaLocation="http://sumo.dlr.de/xsd/emission_file.xsd">
    <timestep time="0.00"/>
    <timestep time="0.10">
        <vehicle id="human_0" eclass="HBEFA3/PC_G_EU4" CO2="2624.72" CO="164.78" HC="0.81" NOx="1.20" PMx="0.07" fuel="1.13" electricity="0.00" noise="55.94" route="routebottom_0" type="human" waiting="0.00" lane="bottom_0" pos="0.66" speed="0.00" angle="92.81" x="37.45" y="-4.79"/>
        <vehicle id="human_1" eclass="HBEFA3/PC_G_EU4" CO2="2624.72" CO="164.78" HC="0.81" NOx="1.20" PMx="0.07" fuel="1.13" electricity="0.00" noise="55.94" route="routebottom_0" type="human" waiting="0.00" lane="bottom_1" pos="0.00" speed="0.00" angle="93.89" x="36.64" y="-1.60"/>
        <vehicle id="human_10" eclass="HBEFA3/PC_G_EU4" CO2="2624.72" CO="164.78" HC="0.81" NOx="1.20" PMx="0.07" fuel="1.13" electricity="0.00" noise="55.94" route="routeright_0" type="human" waiting="0.00" lane="right_0" pos="4.71" speed="0.00" angle="356.32" x="77.65" y="42.01"/>
        <vehicle id="human_11" eclass="HBEFA3/PC_G_EU4" CO2="2624.72" CO="164.78" HC="0.81" NOx="1.20" PMx="0.07" fuel="1.13" electricity="0.00" noise="55.94" route="routeright_0" type="human" waiting="0.00" lane="right_1" pos="4.65" speed="0.00" angle="356.49" x="74.50" y="41.47"/>
        <vehicle id="human_12" eclass="HBEFA3/PC_G_EU4" CO2="2624.72" CO="164.78" HC="0.81" NOx="1.20" PMx="0.07" fuel="1.13" electricity="0.00" noise="55.94" route="routeright_0" type="human" waiting="0.00" lane="right_0" pos="16.15" speed="0.00" angle="338.60" x="74.03" y="54.33"/>
        <vehicle id="human_13" eclass="HBEFA3/PC_G_EU4" CO2="2624.72" CO="164.78" HC="0.81" NOx="1.20" PMx="0.07" fuel="1.13" electricity="0.00" noise="55.94" route="routeright_0" type="human" waiting="0.00" lane="right_1" pos="19.14" speed="0.00" angle="333.98" x="69.70" y="55.70"/>
        <vehicle id="human_14" eclass="HBEFA3/PC_G_EU4" CO2="2624.72" CO="164.78" HC="0.81" NOx="1.20" PMx="0.07" fuel="1.13" electricity="0.00" noise="55.94" route="routeright_0" type="human" waiting="0.00" lane="right_0" pos="29.81" speed="0.00" angle="317.33" x="65.03" y="66.72"/>
        <vehicle id="human_15" eclass="HBEFA3/PC_G_EU4" CO2="2624.72" CO="164.78" HC="0.81" NOx="1.20" PMx="0.07" fuel="1.13" electricity="0.00" noise="55.94" route="routeright_0" type="human" waiting="0.00" lane="right_1" pos="31.76" speed="0.00" angle="314.13" x="61.31" y="65.74"/>
        <vehicle id="human_16" eclass="HBEFA3/PC_G_EU4" CO2="2624.72" CO="164.78" HC="0.81" NOx="1.20" PMx="0.07" fuel="1.13" electricity="0.00" noise="55.94" route="routeright_0" type="human" waiting="0.00" lane="right_0" pos="41.17" speed="0.00" angle="299.55" x="54.51" y="73.94"/>
        <vehicle id="human_17" eclass="HBEFA3/PC_G_EU4" CO2="2624.72" CO="164.78" HC="0.81" NOx="1.20" PMx="0.07" fuel="1.13" electricity="0.00" noise="55.94" route="routeright_0" type="human" waiting="0.00" lane="right_1" pos="41.91" speed="0.00" angle="298.30" x="52.40" y="71.39"/>
        <vehicle id="human_18" eclass="HBEFA3/PC_G_EU4" CO2="2624.72" CO="164.78" HC="0.81" NOx="1.20" PMx="0.07" fuel="1.13" electricity="0.00" noise="55.94" route="routeright_0" type="human" waiting="0.00" lane="right_0" pos="54.10" speed="0.00" angle="279.32" x="40.54" y="77.82"/>
        <vehicle id="human_19" eclass="HBEFA3/PC_G_EU4" CO2="2624.72" CO="164.78" HC="0.81" NOx="1.20" PMx="0.07" fuel="1.13" electricity="0.00" noise="55.94" route="routeright_0" type="human" waiting="0.00" lane="right_1" pos="55.68" speed="0.00" angle="276.81" x="38.53" y="74.77"/>
        <vehicle id="human_2" eclass="HBEFA3/PC_G_EU4" CO2="2624.72" CO="164.78" HC="0.81" NOx="1.20" PMx="0.07" fuel="1.13" electricity="0.00" noise="55.94" route="routebottom_0" type="human" waiting="0.00" lane="bottom_0" pos="14.81" speed="0.00" angle="70.72" x="52.95" y="-1.43"/>
        <vehicle id="human_20" eclass="HBEFA3/PC_G_EU4" CO2="2624.72" CO="164.78" HC="0.81" NOx="1.20" PMx="0.07" fuel="1.13" electricity="0.00" noise="55.94" route="routetop_0" type="human" waiting="0.00" lane="top_0" pos="8.71" speed="0.00" angle="260.26" x="26.78" y="76.83"/>
        <vehicle id="human_21" eclass="HBEFA3/PC_G_EU4" CO2="2624.72" CO="164.78" HC="0.81" NOx="1.20" PMx="0.07" fuel="1.13" electricity="0.00" noise="55.94" route="routetop_0" type="human" waiting="0.00" lane="top_1" pos="8.79" speed="0.00" angle="260.14" x="27.51" y="73.71"/>
        <vehicle id="human_22" eclass="HBEFA3/PC_G_EU4" CO2="2624.72" CO="164.78" HC="0.81" NOx="1.20" PMx="0.07" fuel="1.13" electricity="0.00" noise="55.94" route="routetop_0" type="human" waiting="0.00" lane="top_0" pos="21.17" speed="0.00" angle="240.69" x="13.96" y="71.26"/>
        <vehicle id="human_23" eclass="HBEFA3/PC_G_EU4" CO2="2624.72" CO="164.78" HC="0.81" NOx="1.20" PMx="0.07" fuel="1.13" electricity="0.00" noise="55.94" route="routetop_0" type="human" waiting="0.00" lane="top_1" pos="21.13" speed="0.00" angle="240.79" x="15.76" y="68.61"/>
        <vehicle id="human_24" eclass="HBEFA3/PC_G_EU4" CO2="2624.72" CO="164.78" HC="0.81" NOx="1.20" PMx="0.07" fuel="1.13" electricity="0.00" noise="55.94" route="routetop_0" type="human" waiting="0.00" lane="top_0" pos="33.89" speed="0.00" angle="220.87" x="3.54" y="61.52"/>
        <vehicle id="human_25" eclass="HBEFA3/PC_G_EU4" CO2="2624.72" CO="164.78" HC="0.81" NOx="1.20" PMx="0.07" fuel="1.13" electricity="0.00" noise="55.94" route="routetop_0" type="human" waiting="0.00" lane="top_1" pos="35.50" speed="0.00" angle="218.43" x="5.10" y="58.22"/>
        <vehicle id="human_26" eclass="HBEFA3/PC_G_EU4" CO2="2624.72" CO="164.78" HC="0.81" NOx="1.20" PMx="0.07" fuel="1.13" electricity="0.00" noise="55.94" route="routetop_0" type="human" waiting="0.00" lane="top_0" pos="46.72" speed="0.00" angle="200.87" x="-2.99" y="48.69"/>
        <vehicle id="human_27" eclass="HBEFA3/PC_G_EU4" CO2="2624.72" CO="164.78" HC="0.81" NOx="1.20" PMx="0.07" fuel="1.13" electricity="0.00" noise="55.94" route="routetop_0" type="human" waiting="0.00" lane="top_1" pos="47.04" speed="0.00" angle="200.40" x="-0.04" y="47.40"/>
        <vehicle id="human_28" eclass="HBEFA3/PC_G_EU4" CO2="2624.72" CO="164.78" HC="0.81" NOx="1.20" PMx="0.07" fuel="1.13" electricity="0.00" noise="55.94" route="routeleft_0" type="human" waiting="0.00" lane="left_0" pos="0.41" speed="0.00" angle="183.19" x="-4.79" y="36.05"/>
        <vehicle id="human_29" eclass="HBEFA3/PC_G_EU4" CO2="2624.72" CO="164.78" HC="0.81" NOx="1.20" PMx="0.07" fuel="1.13" electricity="0.00" noise="55.94" route="routeleft_0" type="human" waiting="0.00" lane="left_1" pos="1.08" speed="0.00" angle="182.17" x="-1.58" y="35.46"/>
        <vehicle id="human_3" eclass="HBEFA3/PC_G_EU4" CO2="2624.72" CO="164.78" HC="0.81" NOx="1.20" PMx="0.07" fuel="1.13" electricity="0.00" noise="55.94" route="routebottom_0" type="human" waiting="0.00" lane="bottom_1" pos="11.19" speed="0.00" angle="76.33" x="48.12" y="0.19"/>
        <vehicle id="human_30" eclass="HBEFA3/PC_G_EU4" CO2="2624.72" CO="164.78" HC="0.81" NOx="1.20" PMx="0.07" fuel="1.13" electricity="0.00" noise="55.94" route="routeleft_0" type="human" waiting="0.00" lane="left_0" pos="15.02" speed="0.00" angle="160.32" x="-1.33" y="20.05"/>
        <vehicle id="human_31" eclass="HBEFA3/PC_G_EU4" CO2="2624.72" CO="164.78" HC="0.81" NOx="1.20" PMx="0.07" fuel="1.13" electricity="0.00" noise="55.94" route="routeleft_0" type="human" waiting="0.00" lane="left_1" pos="12.13" speed="0.00" angle="164.82" x="0.49" y="24.17"/>
        <vehicle id="human_32" eclass="HBEFA3/PC_G_EU4" CO2="2624.72" CO="164.78" HC="0.81" NOx="1.20" PMx="0.07" fuel="1.13" electricity="0.00" noise="55.94" route="routeleft_0" type="human" waiting="0.00" lane="left_0" pos="25.08" speed="0.00" angle="144.64" x="4.56" y="10.40"/>
        <vehicle id="human_33" eclass="HBEFA3/PC_G_EU4" CO2="2624.72" CO="164.78" HC="0.81" NOx="1.20" PMx="0.07" fuel="1.13" electricity="0.00" noise="55.94" route="routeleft_0" type="human" waiting="0.00" lane="left_1" pos="25.90" speed="0.00" angle="143.34" x="7.59" y="11.78"/>
        <vehicle id="human_34" eclass="HBEFA3/PC_G_EU4" CO2="2624.72" CO="164.78" HC="0.81" NOx="1.20" PMx="0.07" fuel="1.13" electricity="0.00" noise="55.94" route="routeleft_0" type="human" waiting="0.00" lane="left_0" pos="36.30" speed="0.00" angle="127.10" x="13.93" y="1.98"/>
        <vehicle id="human_35" eclass="HBEFA3/PC_G_EU4" CO2="2624.72" CO="164.78" HC="0.81" NOx="1.20" PMx="0.07" fuel="1.13" electricity="0.00" noise="55.94" route="routeleft_0" type="human" waiting="0.00" lane="left_1" pos="39.39" speed="0.00" angle="122.28" x="18.46" y="3.00"/>
        <vehicle id="human_4" eclass="HBEFA3/PC_G_EU4" CO2="2624.72" CO="164.78" HC="0.81" NOx="1.20" PMx="0.07" fuel="1.13" electricity="0.00" noise="55.94" route="routebottom_0" type="human" waiting="0.00" lane="bottom_0" pos="24.96" speed="0.00" angle="54.82" x="62.71" y="4.48"/>
        <vehicle id="human_5" eclass="HBEFA3/PC_G_EU4" CO2="2624.72" CO="164.78" HC="0.81" NOx="1.20" PMx="0.07" fuel="1.13" electricity="0.00" noise="55.94" route="routebottom_0" type="human" waiting="0.00" lane="bottom_1" pos="23.98" speed="0.00" angle="56.29" x="59.88" y="6.32"/>
        <vehicle id="human_6" eclass="HBEFA3/PC_G_EU4" CO2="2624.72" CO="164.78" HC="0.81" NOx="1.20" PMx="0.07" fuel="1.13" electricity="0.00" noise="55.94" route="routebottom_0" type="human" waiting="0.00" lane="bottom_0" pos="37.96" speed="0.00" angle="34.59" x="72.23" y="15.52"/>
        <vehicle id="human_7" eclass="HBEFA3/PC_G_EU4" CO2="2624.72" CO="164.78" HC="0.81" NOx="1.20" PMx="0.07" fuel="1.13" electricity="0.00" noise="55.94" route="routebottom_0" type="human" waiting="0.00" lane="bottom_1" pos="38.22" speed="0.00" angle="34.21" x="69.63" y="17.40"/>
        <vehicle id="human_8" eclass="HBEFA3/PC_G_EU4" CO2="2624.72" CO="164.78" HC="0.81" NOx="1.20" PMx="0.07" fuel="1.13" electricity="0.00" noise="55.94" route="routebottom_0" type="human" waiting="0.00" lane="bottom_0" pos="50.51" speed="0.00" angle="14.94" x="77.24" y="28.68"/>
        <vehicle id="human_9" eclass="HBEFA3/PC_G_EU4" CO2="2624.72" CO="164.78" HC="0.81" NOx="1.20" PMx="0.07" fuel="1.13" electricity="0.00" noise="55.94" route="routebottom_0" type="human" waiting="0.00" lane="bottom_1" pos="49.64" speed="0.00" angle="16.23" x="73.93" y="28.45"/>
    </timestep>
    <timestep time="0.20">
        <vehicle id="human_0" eclass="HBEFA3/PC_G_EU4" CO2="2744.87" CO="163.02" HC="0.81" NOx="1.25" PMx="0.07" fuel="1.18" electricity="0.00" noise="66.62" route="routebottom_0" type="human" waiting="0.00" lane="bottom_0" pos="0.68" speed="0.24" angle="92.77" x="37.48" y="-4.79"/>
        <vehicle id="human_1" eclass="HBEFA3/PC_G_EU4" CO2="2720.29" CO="162.92" HC="0.81" NOx="1.24" PMx="0.07" fuel="1.17" electricity="0.00" noise="65.60" route="routebottom_0" type="human" waiting="0.00" lane="bottom_1" pos="0.02" speed="0.22" angle="93.85" x="36.66" y="-1.60"/>
        <vehicle id="human_10" eclass="HBEFA3/PC_G_EU4" CO2="2723.48" CO="162.93" HC="0.81" NOx="1.24" PMx="0.07" fuel="1.17" electricity="0.00" noise="65.73" route="routeright_0" type="human" waiting="0.00" lane="right_0" pos="4.74" speed="0.22" angle="356.28" x="77.65" y="42.03"/>
        <vehicle id="human_11" eclass="HBEFA3/PC_G_EU4" CO2="2746.41" CO="163.03" HC="0.81" NOx="1.26" PMx="0.07" fuel="1.18" electricity="0.00" noise="66.68" route="routeright_0" type="human" waiting="0.00" lane="right_1" pos="4.67" speed="0.24" angle="356.45" x="74.50" y="41.50"/>
        <vehicle id="human_12" eclass="HBEFA3/PC_G_EU4" CO2="2742.35" CO="163.01" HC="0.81" NOx="1.25" PMx="0.07" fuel="1.18" electricity="0.00" noise="66.52" route="routeright_0" type="human" waiting="0.00" lane="right_0" pos="16.17" speed="0.24" angle="338.57" x="74.02" y="54.35"/>
        <vehicle id="human_13" eclass="HBEFA3/PC_G_EU4" CO2="2735.33" CO="162.98" HC="0.81" NOx="1.25" PMx="0.07" fuel="1.18" electricity="0.00" noise="66.23" route="routeright_0" type="human" waiting="0.00" lane="right_1" pos="19.17" speed="0.23" angle="333.95" x="69.69" y="55.72"/>
        <vehicle id="human_14" eclass="HBEFA3/PC_G_EU4" CO2="2722.44" CO="162.93" HC="0.81" NOx="1.24" PMx="0.07" fuel="1.17" electricity="0.00" noise="65.69" route="routeright_0" type="human" waiting="0.00" lane="right_0" pos="29.84" speed="0.22" angle="317.29" x="65.01" y="66.74"/>
        <vehicle id="human_15" eclass="HBEFA3/PC_G_EU4" CO2="2702.15" CO="162.88" HC="0.81" NOx="1.24" PMx="0.07" fuel="1.16" electricity="0.00" noise="64.76" route="routeright_0" type="human" waiting="0.00" lane="right_1" pos="31.78" speed="0.20" angle="314.10" x="61.29" y="65.76"/>
        <vehicle id="human_16" eclass="HBEFA3/PC_G_EU4" CO2="2737.71" CO="162.99" HC="0.81" NOx="1.25" PMx="0.07" fuel="1.18" electricity="0.00" noise="66.33" route="routeright_0" type="human" waiting="0.00" lane="right_0" pos="41.19" speed="0.23" angle="299.52" x="54.49" y="73.95"/>
        <vehicle id="human_17" eclass="HBEFA3/PC_G_EU4" CO2="2742.94" CO="163.01" HC="0.81" NOx="1.25" PMx="0.07" fuel="1.18" electricity="0.00" noise="66.54" route="routeright_0" type="human" waiting="0.00" lane="right_1" pos="41.93" speed="0.24" angle="298.27" x="52.38" y="71.40"/>
        <vehicle id="human_18" eclass="HBEFA3/PC_G_EU4" CO2="2732.32" CO="162.96" HC="0.81" NOx="1.25" PMx="0.07" fuel="1.17" electricity="0.00" noise="66.11" route="routeright_0" type="human" waiting="0.00" lane="right_0" pos="54.12" speed="0.23" angle="279.29" x="40.51" y="77.82"/>
        <vehicle id="human_19" eclass="HBEFA3/PC_G_EU4" CO2="2713.66" CO="162.90" HC="0.81" NOx="1.24" PMx="0.07" fuel="1.17" electricity="0.00" noise="65.30" route="routeright_0" type="human" waiting="0.00" lane="right_1" pos="55.70" speed="0.21" angle="276.78" x="38.51" y="74.77"/>
        <vehicle id="human_2" eclass="HBEFA3/PC_G_EU4" CO2="2702.24" CO="162.88" HC="0.81" NOx="1.24" PMx="0.07" fuel="1.16" electricity="0.00" noise="64.76" route="routebottom_0" type="human" waiting="0.00" lane="bottom_0" pos="14.83" speed="0.20" angle="70.69" x="52.97" y="-1.42"/>
        <vehicle id="human_20" eclass="HBEFA3/PC_G_EU4" CO2="2734.01" CO="162.97" HC="0.81" NOx="1.25" PMx="0.07" fuel="1.18" electricity="0.00" noise="66.18" route="routetop_0" type="human" waiting="0.00" lane="top_0" pos="8.73" speed="0.23" angle="260.22" x="26.76" y="76.82"/>
        <vehicle id="human_21" eclass="HBEFA3/PC_G_EU4" CO2="2733.08" CO="162.97" HC="0.81" NOx="1.25" PMx="0.07" fuel="1.17" electricity="0.00" noise="66.14" route="routetop_0" type="human" waiting="0.00" lane="top_1" pos="8.81" speed="0.23" angle="260.11" x="27.49" y="73.71"/>
        <vehicle id="human_22" eclass="HBEFA3/PC_G_EU4" CO2="2736.13" CO="162.98" HC="0.81" NOx="1.25" PMx="0.07" fuel="1.18" electricity="0.00" noise="66.27" route="routetop_0" type="human" waiting="0.00" lane="top_0" pos="21.19" speed="0.23" angle="240.65" x="13.94" y="71.25"/>
        <vehicle id="human_23" eclass="HBEFA3/PC_G_EU4" CO2="2745.86" CO="163.03" HC="0.81" NOx="1.25" PMx="0.07" fuel="1.18" electricity="0.00" noise="66.66" route="routetop_0" type="human" waiting="0.00" lane="top_1" pos="21.16" speed="0.24" angle="240.75" x="15.73" y="68.60"/>
        <vehicle id="human_24" eclass="HBEFA3/PC_G_EU4" CO2="2736.99" CO="162.98" HC="0.81" NOx="1.25" PMx="0.07" fuel="1.18" electricity="0.00" noise="66.30" route="routetop_0" type="human" waiting="0.00" lane="top_0" pos="33.91" speed="0.23" angle="220.83" x="3.52" y="61.50"/>
        <vehicle id="human_25" eclass="HBEFA3/PC_G_EU4" CO2="2724.72" CO="162.93" HC="0.81" NOx="1.25" PMx="0.07" fuel="1.17" electricity="0.00" noise="65.79" route="routetop_0" type="human" waiting="0.00" lane="top_1" pos="35.52" speed="0.22" angle="218.38" x="5.09" y="58.20"/>
        <vehicle id="human_26" eclass="HBEFA3/PC_G_EU4" CO2="2722.25" CO="162.93" HC="0.81" NOx="1.24" PMx="0.07" fuel="1.17" electricity="0.00" noise="65.68" route="routetop_0" type="human" waiting="0.00" lane="top_0" pos="46.74" speed="0.22" angle="200.84" x="-2.99" y="48.66"/>
        <vehicle id="human_27" eclass="HBEFA3/PC_G_EU4" CO2="2726.52" CO="162.94" HC="0.81" NOx="1.25" PMx="0.07" fuel="1.17" electricity="0.00" noise="65.87" route="routetop_0" type="human" waiting="0.00" lane="top_1" pos="47.06" speed="0.22" angle="200.37" x="-0.05" y="47.38"/>
        <vehicle id="human_28" eclass="HBEFA3/PC_G_EU4" CO2="2746.93" CO="163.03" HC="0.81" NOx="1.26" PMx="0.07" fuel="1.18" electricity="0.00" noise="66.70" route="routeleft_0" type="human" waiting="0.00" lane="left_0" pos="0.43" speed="0.24" angle="183.14" x="-4.79" y="36.02"/>
        <vehicle id="human_29" eclass="HBEFA3/PC_G_EU4" CO2="2718.25" CO="162.91" HC="0.81" NOx="1.24" PMx="0.07" fuel="1.17" electricity="0.00" noise="65.51" route="routeleft_0" type="human" waiting="0.00" lane="left_1" pos="1.10" speed="0.22" angle="182.14" x="-1.58" y="35.43"/>
        <vehicle id="human_3" eclass="HBEFA3/PC_G_EU4" CO2="2736.64" CO="162.98" HC="0.81" NOx="1.25" PMx="0.07" fuel="1.18" electricity="0.00" noise="66.29" route="routebottom_0" type="human" waiting="0.00" lane="bottom_1" pos="11.21" speed="0.23" angle="76.30" x="48.15" y="0.20"/>
        <vehicle id="human_30" eclass="HBEFA3/PC_G_EU4" CO2="2700.17" CO="162.87" HC="0.81" NOx="1.23" PMx="0.07" fuel="1.16" electricity="0.00" noise="64.66" route="routeleft_0" type="human" waiting="0.00" lane="left_0" pos="15.04" speed="0.20" angle="160.29" x="-1.32" y="20.03"/>
        <vehicle id="human_31" eclass="HBEFA3/PC_G_EU4" CO2="2742.96" CO="163.01" HC="0.81" NOx="1.25" PMx="0.07" fuel="1.18" electricity="0.00" noise="66.54" route="routeleft_0" type="human" waiting="0.00" lane="left_1" pos="12.15" speed="0.24" angle="164.78" x="0.50" y="24.15"/>
        <vehicle id="human_32" eclass="HBEFA3/PC_G_EU4" CO2="2720.65" CO="162.92" HC="0.81" NOx="1.24" PMx="0.07" fuel="1.17" electricity="0.00" noise="65.61" route="routeleft_0" type="human" waiting="0.00" lane="left_0" pos="25.10" speed="0.22" angle="144.60" x="4.58" y="10.38"/>
        <vehicle id="human_33" eclass="HBEFA3/PC_G_EU4" CO2="2741.29" CO="163.00" HC="0.81" NOx="1.25" PMx="0.07" fuel="1.18" electricity="0.00" noise="66.48" route="routeleft_0" type="human" waiting="0.00" lane="left_1" pos="25.93" speed="0.24" angle="143.31" x="7.60" y="11.76"/>
        <vehicle id="human_34" eclass="HBEFA3/PC_G_EU4" CO2="2760.90" CO="163.11" HC="0.81" NOx="1.26" PMx="0.07" fuel="1.19" electricity="0.00" noise="67.23" route="routeleft_0" type="human" waiting="0.00" lane="left_0" pos="36.33" speed="0.25" angle="127.07" x="13.95" y="1.96"/>
        <vehicle id="human_35" eclass="HBEFA3/PC_G_EU4" CO2="2756.59" CO="163.09" HC="0.81" NOx="1.26" PMx="0.07" fuel="1.19" electricity="0.00" noise="67.07" route="routeleft_0" type="human" waiting="0.00" lane="left_1" pos="39.41" speed="0.25" angle="122.24" x="18.48" y="2.99"/>
        <vehicle id="human_4" eclass="HBEFA3/PC_G_EU4" CO2="2738.19" CO="162.99" HC="0.81" NOx="1.25" PMx="0.07" fuel="1.18" electricity="0.00" noise="66.35" route="routebottom_0" type="human" waiting="0.00" lane="bottom_0" pos="24.99" speed="0.23" angle="54.78" x="62.73" y="4.50"/>
        <vehicle id="human_5" eclass="HBEFA3/PC_G_EU4" CO2="2745.29" CO="163.02" HC="0.81" NOx="1.25" PMx="0.07" fuel="1.18" electricity="0.00" noise="66.63" route="routebottom_0" type="human" waiting="0.00" lane="bottom_1" pos="24.00" speed="0.24" angle="56.24" x="59.90" y="6.34"/>
        <vehicle id="human_6" eclass="HBEFA3/PC_G_EU4" CO2="2734.76" CO="162.97" HC="0.81" NOx="1.25" PMx="0.07" fuel="1.18" electricity="0.00" noise="66.21" route="routebottom_0" type="human" waiting="0.00" lane="bottom_0" pos="37.99" speed="0.23" angle="34.56" x="72.25" y="15.54"/>
        <vehicle id="human_7" eclass="HBEFA3/PC_G_EU4" CO2="2723.32" CO="162.93" HC="0.81" NOx="1.24" PMx="0.07" fuel="1.17" electricity="0.00" noise="65.73" route="routebottom_0" type="human" waiting="0.00" lane="bottom_1" pos="38.24" speed="0.22" angle="34.18" x="69.64" y="17.42"/>
        <vehicle id="human_8" eclass="HBEFA3/PC_G_EU4" CO2="2728.34" CO="162.95" HC="0.81" NOx="1.25" PMx="0.07" fuel="1.17" electricity="0.00" noise="65.94" route="routebottom_0" type="human" waiting="0.00" lane="bottom_0" pos="50.53" speed="0.23" angle="14.89" x="77.25" y="28.70"/>
        <vehicle id="human_9" eclass="HBEFA3/PC_G_EU4" CO2="2735.65" CO="162.98" HC="0.81" NOx="1.25" PMx="0.07" fuel="1.18" electricity="0.00" noise="66.25" route="routebottom_0" type="human" waiting="0.00" lane="bottom_1" pos="49.67" speed="0.23" angle="16.20" x="73.94" y="28.48"/>
    </timestep>
</emission-export>
