<?xml version="1.0" encoding="UTF-8"?>

<!-- generated on 2020년 07월 03일 (금) 오전 10시 33분 56초 by Eclipse SUMO GUI Version v1_1_0+0000-2147d155b1
<configuration xmlns:xsi="http://www.w3.org/2001/XMLSchema-instance" xsi:noNamespaceSchemaLocation="http://sumo.dlr.de/xsd/sumoConfiguration.xsd">

    <input>
        <net-file value="/home/bmil02/flow/flow/core/kernel/network/debug/cfg/ring_example_20200703-1033541593740034.1051927.net.xml"/>
        <route-files value="/home/bmil02/flow/flow/core/kernel/network/debug/cfg/ring_example_20200703-1033541593740034.1051927.rou.xml"/>
        <additional-files value="/home/bmil02/flow/flow/core/kernel/network/debug/cfg/ring_example_20200703-1033541593740034.1051927.add.xml"/>
    </input>

    <output>
        <emission-output value="data/ring_example_20200703-1033541593740034.1051927-emission.xml"/>
    </output>

    <time>
        <begin value="0"/>
        <step-length value="0.1"/>
    </time>

    <processing>
        <collision.check-junctions value="true"/>
        <time-to-teleport value="-1"/>
    </processing>

    <report>
        <no-step-log value="true"/>
    </report>

    <traci_server>
        <remote-port value="51959"/>
        <num-clients value="1"/>
    </traci_server>

    <gui_only>
        <gui-settings-file value="/home/bmil02/flow/flow/core/kernel/network/debug/cfg/ring_example_20200703-1033541593740034.1051927.gui.cfg"/>
        <tracker-interval value="0.1"/>
    </gui_only>

</configuration>
-->

<emission-export xmlns:xsi="http://www.w3.org/2001/XMLSchema-instance" xsi:noNamespaceSchemaLocation="http://sumo.dlr.de/xsd/emission_file.xsd">
    <timestep time="0.00"/>
    <timestep time="0.10">
        <vehicle id="human_0" eclass="HBEFA3/PC_G_EU4" CO2="2624.72" CO="164.78" HC="0.81" NOx="1.20" PMx="0.07" fuel="1.13" electricity="0.00" noise="55.94" route="routebottom_0" type="human" waiting="0.00" lane="bottom_0" pos="0.60" speed="0.00" angle="92.88" x="37.39" y="-4.79"/>
        <vehicle id="human_1" eclass="HBEFA3/PC_G_EU4" CO2="2624.72" CO="164.78" HC="0.81" NOx="1.20" PMx="0.07" fuel="1.13" electricity="0.00" noise="55.94" route="routebottom_0" type="human" waiting="0.00" lane="bottom_1" pos="0.00" speed="0.00" angle="93.89" x="36.64" y="-1.60"/>
        <vehicle id="human_10" eclass="HBEFA3/PC_G_EU4" CO2="2624.72" CO="164.78" HC="0.81" NOx="1.20" PMx="0.07" fuel="1.13" electricity="0.00" noise="55.94" route="routeright_0" type="human" waiting="0.00" lane="right_0" pos="7.59" speed="0.00" angle="351.92" x="77.11" y="45.20"/>
        <vehicle id="human_11" eclass="HBEFA3/PC_G_EU4" CO2="2624.72" CO="164.78" HC="0.81" NOx="1.20" PMx="0.07" fuel="1.13" electricity="0.00" noise="55.94" route="routeright_0" type="human" waiting="0.00" lane="right_1" pos="5.21" speed="0.00" angle="355.64" x="74.42" y="42.05"/>
        <vehicle id="human_12" eclass="HBEFA3/PC_G_EU4" CO2="2624.72" CO="164.78" HC="0.81" NOx="1.20" PMx="0.07" fuel="1.13" electricity="0.00" noise="55.94" route="routeright_0" type="human" waiting="0.00" lane="right_0" pos="18.75" speed="0.00" angle="334.50" x="72.68" y="56.93"/>
        <vehicle id="human_13" eclass="HBEFA3/PC_G_EU4" CO2="2624.72" CO="164.78" HC="0.81" NOx="1.20" PMx="0.07" fuel="1.13" electricity="0.00" noise="55.94" route="routeright_0" type="human" waiting="0.00" lane="right_1" pos="18.27" speed="0.00" angle="335.17" x="70.14" y="54.90"/>
        <vehicle id="human_14" eclass="HBEFA3/PC_G_EU4" CO2="2624.72" CO="164.78" HC="0.81" NOx="1.20" PMx="0.07" fuel="1.13" electricity="0.00" noise="55.94" route="routeright_0" type="human" waiting="0.00" lane="right_0" pos="31.54" speed="0.00" angle="314.44" x="63.57" y="68.02"/>
        <vehicle id="human_15" eclass="HBEFA3/PC_G_EU4" CO2="2624.72" CO="164.78" HC="0.81" NOx="1.20" PMx="0.07" fuel="1.13" electricity="0.00" noise="55.94" route="routeright_0" type="human" waiting="0.00" lane="right_1" pos="32.38" speed="0.00" angle="313.22" x="60.82" y="66.16"/>
        <vehicle id="human_16" eclass="HBEFA3/PC_G_EU4" CO2="2624.72" CO="164.78" HC="0.81" NOx="1.20" PMx="0.07" fuel="1.13" electricity="0.00" noise="55.94" route="routeright_0" type="human" waiting="0.00" lane="right_0" pos="45.04" speed="0.00" angle="293.47" x="50.48" y="75.62"/>
        <vehicle id="human_17" eclass="HBEFA3/PC_G_EU4" CO2="2624.72" CO="164.78" HC="0.81" NOx="1.20" PMx="0.07" fuel="1.13" electricity="0.00" noise="55.94" route="routeright_0" type="human" waiting="0.00" lane="right_1" pos="43.81" speed="0.00" angle="295.40" x="50.58" y="72.17"/>
        <vehicle id="human_18" eclass="HBEFA3/PC_G_EU4" CO2="2624.72" CO="164.78" HC="0.81" NOx="1.20" PMx="0.07" fuel="1.13" electricity="0.00" noise="55.94" route="routeright_0" type="human" waiting="0.00" lane="right_0" pos="57.19" speed="0.00" angle="274.61" x="37.06" y="78.01"/>
        <vehicle id="human_19" eclass="HBEFA3/PC_G_EU4" CO2="2624.72" CO="164.78" HC="0.81" NOx="1.20" PMx="0.07" fuel="1.13" electricity="0.00" noise="55.94" route="routeright_0" type="human" waiting="0.00" lane="right_1" pos="57.50" speed="0.00" angle="274.06" x="36.64" y="74.82"/>
        <vehicle id="human_2" eclass="HBEFA3/PC_G_EU4" CO2="2624.72" CO="164.78" HC="0.81" NOx="1.20" PMx="0.07" fuel="1.13" electricity="0.00" noise="55.94" route="routebottom_0" type="human" waiting="0.00" lane="bottom_0" pos="11.86" speed="0.00" angle="75.30" x="49.85" y="-2.62"/>
        <vehicle id="human_20" eclass="HBEFA3/PC_G_EU4" CO2="2624.72" CO="164.78" HC="0.81" NOx="1.20" PMx="0.07" fuel="1.13" electricity="0.00" noise="55.94" route="routetop_0" type="human" waiting="0.00" lane="top_0" pos="12.23" speed="0.00" angle="254.63" x="22.99" y="75.70"/>
        <vehicle id="human_21" eclass="HBEFA3/PC_G_EU4" CO2="2624.72" CO="164.78" HC="0.81" NOx="1.20" PMx="0.07" fuel="1.13" electricity="0.00" noise="55.94" route="routetop_0" type="human" waiting="0.00" lane="top_1" pos="11.25" speed="0.00" angle="256.24" x="25.03" y="73.01"/>
        <vehicle id="human_22" eclass="HBEFA3/PC_G_EU4" CO2="2624.72" CO="164.78" HC="0.81" NOx="1.20" PMx="0.07" fuel="1.13" electricity="0.00" noise="55.94" route="routetop_0" type="human" waiting="0.00" lane="top_0" pos="24.72" speed="0.00" angle="235.16" x="10.73" y="68.91"/>
        <vehicle id="human_23" eclass="HBEFA3/PC_G_EU4" CO2="2624.72" CO="164.78" HC="0.81" NOx="1.20" PMx="0.07" fuel="1.13" electricity="0.00" noise="55.94" route="routetop_0" type="human" waiting="0.00" lane="top_1" pos="24.49" speed="0.00" angle="235.50" x="12.92" y="66.57"/>
        <vehicle id="human_24" eclass="HBEFA3/PC_G_EU4" CO2="2624.72" CO="164.78" HC="0.81" NOx="1.20" PMx="0.07" fuel="1.13" electricity="0.00" noise="55.94" route="routetop_0" type="human" waiting="0.00" lane="top_0" pos="39.05" speed="0.00" angle="212.81" x="0.38" y="56.63"/>
        <vehicle id="human_25" eclass="HBEFA3/PC_G_EU4" CO2="2624.72" CO="164.78" HC="0.81" NOx="1.20" PMx="0.07" fuel="1.13" electricity="0.00" noise="55.94" route="routetop_0" type="human" waiting="0.00" lane="top_1" pos="38.09" speed="0.00" angle="214.39" x="3.66" y="55.94"/>
        <vehicle id="human_26" eclass="HBEFA3/PC_G_EU4" CO2="2624.72" CO="164.78" HC="0.81" NOx="1.20" PMx="0.07" fuel="1.13" electricity="0.00" noise="55.94" route="routetop_0" type="human" waiting="0.00" lane="top_0" pos="51.04" speed="0.00" angle="194.08" x="-4.13" y="43.95"/>
        <vehicle id="human_27" eclass="HBEFA3/PC_G_EU4" CO2="2624.72" CO="164.78" HC="0.81" NOx="1.20" PMx="0.07" fuel="1.13" electricity="0.00" noise="55.94" route="routetop_0" type="human" waiting="0.00" lane="top_1" pos="50.31" speed="0.00" angle="195.29" x="-0.86" y="44.09"/>
        <vehicle id="human_28" eclass="HBEFA3/PC_G_EU4" CO2="2624.72" CO="164.78" HC="0.81" NOx="1.20" PMx="0.07" fuel="1.13" electricity="0.00" noise="55.94" route="routeleft_0" type="human" waiting="0.00" lane="left_0" pos="6.13" speed="0.00" angle="174.12" x="-4.20" y="29.64"/>
        <vehicle id="human_29" eclass="HBEFA3/PC_G_EU4" CO2="2624.72" CO="164.78" HC="0.81" NOx="1.20" PMx="0.07" fuel="1.13" electricity="0.00" noise="55.94" route="routeleft_0" type="human" waiting="0.00" lane="left_1" pos="6.26" speed="0.00" angle="173.99" x="-1.03" y="30.08"/>
        <vehicle id="human_3" eclass="HBEFA3/PC_G_EU4" CO2="2624.72" CO="164.78" HC="0.81" NOx="1.20" PMx="0.07" fuel="1.13" electricity="0.00" noise="55.94" route="routebottom_0" type="human" waiting="0.00" lane="bottom_1" pos="13.80" speed="0.00" angle="72.29" x="50.69" y="1.10"/>
        <vehicle id="human_30" eclass="HBEFA3/PC_G_EU4" CO2="2624.72" CO="164.78" HC="0.81" NOx="1.20" PMx="0.07" fuel="1.13" electricity="0.00" noise="55.94" route="routeleft_0" type="human" waiting="0.00" lane="left_0" pos="18.78" speed="0.00" angle="154.46" x="0.56" y="16.26"/>
        <vehicle id="human_31" eclass="HBEFA3/PC_G_EU4" CO2="2624.72" CO="164.78" HC="0.81" NOx="1.20" PMx="0.07" fuel="1.13" electricity="0.00" noise="55.94" route="routeleft_0" type="human" waiting="0.00" lane="left_1" pos="19.12" speed="0.00" angle="154.02" x="3.50" y="17.54"/>
        <vehicle id="human_32" eclass="HBEFA3/PC_G_EU4" CO2="2624.72" CO="164.78" HC="0.81" NOx="1.20" PMx="0.07" fuel="1.13" electricity="0.00" noise="55.94" route="routeleft_0" type="human" waiting="0.00" lane="left_0" pos="30.97" speed="0.00" angle="135.55" x="9.15" y="5.62"/>
        <vehicle id="human_33" eclass="HBEFA3/PC_G_EU4" CO2="2624.72" CO="164.78" HC="0.81" NOx="1.20" PMx="0.07" fuel="1.13" electricity="0.00" noise="55.94" route="routeleft_0" type="human" waiting="0.00" lane="left_1" pos="32.25" speed="0.00" angle="133.40" x="12.30" y="7.14"/>
        <vehicle id="human_34" eclass="HBEFA3/PC_G_EU4" CO2="2624.72" CO="164.78" HC="0.81" NOx="1.20" PMx="0.07" fuel="1.13" electricity="0.00" noise="55.94" route="routeleft_0" type="human" waiting="0.00" lane="left_0" pos="44.36" speed="0.00" angle="114.62" x="22.02" y="-2.14"/>
        <vehicle id="human_35" eclass="HBEFA3/PC_G_EU4" CO2="2624.72" CO="164.78" HC="0.81" NOx="1.20" PMx="0.07" fuel="1.13" electricity="0.00" noise="55.94" route="routeleft_0" type="human" waiting="0.00" lane="left_1" pos="45.36" speed="0.00" angle="112.98" x="24.15" y="0.50"/>
        <vehicle id="human_4" eclass="HBEFA3/PC_G_EU4" CO2="2624.72" CO="164.78" HC="0.81" NOx="1.20" PMx="0.07" fuel="1.13" electricity="0.00" noise="55.94" route="routebottom_0" type="human" waiting="0.00" lane="bottom_0" pos="25.27" speed="0.00" angle="54.31" x="62.98" y="4.70"/>
        <vehicle id="human_5" eclass="HBEFA3/PC_G_EU4" CO2="2624.72" CO="164.78" HC="0.81" NOx="1.20" PMx="0.07" fuel="1.13" electricity="0.00" noise="55.94" route="routebottom_0" type="human" waiting="0.00" lane="bottom_1" pos="24.42" speed="0.00" angle="55.60" x="60.24" y="6.61"/>
        <vehicle id="human_6" eclass="HBEFA3/PC_G_EU4" CO2="2624.72" CO="164.78" HC="0.81" NOx="1.20" PMx="0.07" fuel="1.13" electricity="0.00" noise="55.94" route="routebottom_0" type="human" waiting="0.00" lane="bottom_0" pos="36.62" speed="0.00" angle="36.66" x="71.44" y="14.24"/>
        <vehicle id="human_7" eclass="HBEFA3/PC_G_EU4" CO2="2624.72" CO="164.78" HC="0.81" NOx="1.20" PMx="0.07" fuel="1.13" electricity="0.00" noise="55.94" route="routebottom_0" type="human" waiting="0.00" lane="bottom_1" pos="38.80" speed="0.00" angle="33.20" x="69.93" y="17.92"/>
        <vehicle id="human_8" eclass="HBEFA3/PC_G_EU4" CO2="2624.72" CO="164.78" HC="0.81" NOx="1.20" PMx="0.07" fuel="1.13" electricity="0.00" noise="55.94" route="routebottom_0" type="human" waiting="0.00" lane="bottom_0" pos="50.67" speed="0.00" angle="14.64" x="77.28" y="28.86"/>
        <vehicle id="human_9" eclass="HBEFA3/PC_G_EU4" CO2="2624.72" CO="164.78" HC="0.81" NOx="1.20" PMx="0.07" fuel="1.13" electricity="0.00" noise="55.94" route="routebottom_0" type="human" waiting="0.00" lane="bottom_1" pos="52.54" speed="0.00" angle="11.69" x="74.46" y="31.43"/>
    </timestep>
    <timestep time="0.20">
        <vehicle id="human_0" eclass="HBEFA3/PC_G_EU4" CO2="2633.85" CO="163.40" HC="0.81" NOx="1.21" PMx="0.07" fuel="1.13" electricity="0.00" noise="59.88" route="routebottom_0" type="human" waiting="0.10" lane="bottom_0" pos="0.61" speed="0.09" angle="92.86" x="37.40" y="-4.79"/>
        <vehicle id="human_1" eclass="HBEFA3/PC_G_EU4" CO2="2635.59" CO="163.35" HC="0.81" NOx="1.21" PMx="0.07" fuel="1.13" electricity="0.00" noise="60.11" route="routebottom_0" type="human" waiting="0.10" lane="bottom_1" pos="0.01" speed="0.09" angle="93.87" x="36.65" y="-1.60"/>
        <vehicle id="human_10" eclass="HBEFA3/PC_G_EU4" CO2="2633.74" CO="163.40" HC="0.81" NOx="1.21" PMx="0.07" fuel="1.13" electricity="0.00" noise="59.87" route="routeright_0" type="human" waiting="0.10" lane="right_0" pos="7.60" speed="0.09" angle="351.90" x="77.11" y="45.21"/>
        <vehicle id="human_11" eclass="HBEFA3/PC_G_EU4" CO2="2635.24" CO="163.36" HC="0.81" NOx="1.21" PMx="0.07" fuel="1.13" electricity="0.00" noise="60.06" route="routeright_0" type="human" waiting="0.10" lane="right_1" pos="5.22" speed="0.09" angle="355.63" x="74.42" y="42.06"/>
        <vehicle id="human_12" eclass="HBEFA3/PC_G_EU4" CO2="2635.09" CO="163.36" HC="0.81" NOx="1.21" PMx="0.07" fuel="1.13" electricity="0.00" noise="60.04" route="routeright_0" type="human" waiting="0.10" lane="right_0" pos="18.76" speed="0.09" angle="334.49" x="72.67" y="56.94"/>
        <vehicle id="human_13" eclass="HBEFA3/PC_G_EU4" CO2="2635.71" CO="163.34" HC="0.81" NOx="1.21" PMx="0.07" fuel="1.13" electricity="0.00" noise="60.12" route="routeright_0" type="human" waiting="0.10" lane="right_1" pos="18.28" speed="0.09" angle="335.16" x="70.14" y="54.91"/>
        <vehicle id="human_14" eclass="HBEFA3/PC_G_EU4" CO2="2635.46" CO="163.35" HC="0.81" NOx="1.21" PMx="0.07" fuel="1.13" electricity="0.00" noise="60.09" route="routeright_0" type="human" waiting="0.10" lane="right_0" pos="31.55" speed="0.09" angle="314.43" x="63.57" y="68.03"/>
        <vehicle id="human_15" eclass="HBEFA3/PC_G_EU4" CO2="2634.03" CO="163.39" HC="0.81" NOx="1.21" PMx="0.07" fuel="1.13" electricity="0.00" noise="59.91" route="routeright_0" type="human" waiting="0.10" lane="right_1" pos="32.38" speed="0.09" angle="313.20" x="60.81" y="66.16"/>
        <vehicle id="human_16" eclass="HBEFA3/PC_G_EU4" CO2="2634.65" CO="163.37" HC="0.81" NOx="1.21" PMx="0.07" fuel="1.13" electricity="0.00" noise="59.99" route="routeright_0" type="human" waiting="0.10" lane="right_0" pos="45.05" speed="0.09" angle="293.46" x="50.47" y="75.62"/>
        <vehicle id="human_17" eclass="HBEFA3/PC_G_EU4" CO2="2635.54" CO="163.35" HC="0.81" NOx="1.21" PMx="0.07" fuel="1.13" electricity="0.00" noise="60.10" route="routeright_0" type="human" waiting="0.10" lane="right_1" pos="43.82" speed="0.09" angle="295.39" x="50.57" y="72.17"/>
        <vehicle id="human_18" eclass="HBEFA3/PC_G_EU4" CO2="2635.02" CO="163.36" HC="0.81" NOx="1.21" PMx="0.07" fuel="1.13" electricity="0.00" noise="60.04" route="routeright_0" type="human" waiting="0.10" lane="right_0" pos="57.20" speed="0.09" angle="274.60" x="37.05" y="78.01"/>
        <vehicle id="human_19" eclass="HBEFA3/PC_G_EU4" CO2="2634.00" CO="163.39" HC="0.81" NOx="1.21" PMx="0.07" fuel="1.13" electricity="0.00" noise="59.90" route="routeright_0" type="human" waiting="0.10" lane=":top_0_1" pos="0.01" speed="0.09" angle="274.05" x="36.63" y="74.82"/>
        <vehicle id="human_2" eclass="HBEFA3/PC_G_EU4" CO2="2635.41" CO="163.35" HC="0.81" NOx="1.21" PMx="0.07" fuel="1.13" electricity="0.00" noise="60.08" route="routebottom_0" type="human" waiting="0.10" lane="bottom_0" pos="11.87" speed="0.09" angle="75.29" x="49.86" y="-2.62"/>
        <vehicle id="human_20" eclass="HBEFA3/PC_G_EU4" CO2="2634.90" CO="163.37" HC="0.81" NOx="1.21" PMx="0.07" fuel="1.13" electricity="0.00" noise="60.02" route="routetop_0" type="human" waiting="0.10" lane="top_0" pos="12.23" speed="0.09" angle="254.61" x="22.98" y="75.70"/>
        <vehicle id="human_21" eclass="HBEFA3/PC_G_EU4" CO2="2635.33" CO="163.35" HC="0.81" NOx="1.21" PMx="0.07" fuel="1.13" electricity="0.00" noise="60.07" route="routetop_0" type="human" waiting="0.10" lane="top_1" pos="11.26" speed="0.09" angle="256.23" x="25.03" y="73.01"/>
        <vehicle id="human_22" eclass="HBEFA3/PC_G_EU4" CO2="2635.80" CO="163.34" HC="0.81" NOx="1.21" PMx="0.07" fuel="1.13" electricity="0.00" noise="60.13" route="routetop_0" type="human" waiting="0.10" lane="top_0" pos="24.73" speed="0.09" angle="235.15" x="10.72" y="68.91"/>
        <vehicle id="human_23" eclass="HBEFA3/PC_G_EU4" CO2="2635.50" CO="163.35" HC="0.81" NOx="1.21" PMx="0.07" fuel="1.13" electricity="0.00" noise="60.10" route="routetop_0" type="human" waiting="0.10" lane="top_1" pos="24.50" speed="0.09" angle="235.49" x="12.91" y="66.56"/>
        <vehicle id="human_24" eclass="HBEFA3/PC_G_EU4" CO2="2634.53" CO="163.38" HC="0.81" NOx="1.21" PMx="0.07" fuel="1.13" electricity="0.00" noise="59.97" route="routetop_0" type="human" waiting="0.10" lane="top_0" pos="39.06" speed="0.09" angle="212.79" x="0.37" y="56.62"/>
        <vehicle id="human_25" eclass="HBEFA3/PC_G_EU4" CO2="2634.71" CO="163.37" HC="0.81" NOx="1.21" PMx="0.07" fuel="1.13" electricity="0.00" noise="60.00" route="routetop_0" type="human" waiting="0.10" lane="top_1" pos="38.10" speed="0.09" angle="214.38" x="3.66" y="55.93"/>
        <vehicle id="human_26" eclass="HBEFA3/PC_G_EU4" CO2="2635.05" CO="163.36" HC="0.81" NOx="1.21" PMx="0.07" fuel="1.13" electricity="0.00" noise="60.04" route="routetop_0" type="human" waiting="0.10" lane="top_0" pos="51.05" speed="0.09" angle="194.07" x="-4.13" y="43.94"/>
        <vehicle id="human_27" eclass="HBEFA3/PC_G_EU4" CO2="2635.50" CO="163.35" HC="0.81" NOx="1.21" PMx="0.07" fuel="1.13" electricity="0.00" noise="60.10" route="routetop_0" type="human" waiting="0.10" lane="top_1" pos="50.32" speed="0.09" angle="195.28" x="-0.86" y="44.08"/>
        <vehicle id="human_28" eclass="HBEFA3/PC_G_EU4" CO2="2635.00" CO="163.36" HC="0.81" NOx="1.21" PMx="0.07" fuel="1.13" electricity="0.00" noise="60.03" route="routeleft_0" type="human" waiting="0.10" lane="left_0" pos="6.14" speed="0.09" angle="174.11" x="-4.20" y="29.63"/>
        <vehicle id="human_29" eclass="HBEFA3/PC_G_EU4" CO2="2635.12" CO="163.36" HC="0.81" NOx="1.21" PMx="0.07" fuel="1.13" electricity="0.00" noise="60.05" route="routeleft_0" type="human" waiting="0.10" lane="left_1" pos="6.27" speed="0.09" angle="173.98" x="-1.03" y="30.07"/>
        <vehicle id="human_3" eclass="HBEFA3/PC_G_EU4" CO2="2633.05" CO="163.42" HC="0.81" NOx="1.21" PMx="0.07" fuel="1.13" electricity="0.00" noise="59.78" route="routebottom_0" type="human" waiting="0.10" lane="bottom_1" pos="13.81" speed="0.09" angle="72.27" x="50.70" y="1.10"/>
        <vehicle id="human_30" eclass="HBEFA3/PC_G_EU4" CO2="2634.68" CO="163.37" HC="0.81" NOx="1.21" PMx="0.07" fuel="1.13" electricity="0.00" noise="59.99" route="routeleft_0" type="human" waiting="0.10" lane="left_0" pos="18.79" speed="0.09" angle="154.45" x="0.56" y="16.25"/>
        <vehicle id="human_31" eclass="HBEFA3/PC_G_EU4" CO2="2635.28" CO="163.35" HC="0.81" NOx="1.21" PMx="0.07" fuel="1.13" electricity="0.00" noise="60.07" route="routeleft_0" type="human" waiting="0.10" lane="left_1" pos="19.13" speed="0.09" angle="154.01" x="3.51" y="17.53"/>
        <vehicle id="human_32" eclass="HBEFA3/PC_G_EU4" CO2="2635.41" CO="163.35" HC="0.81" NOx="1.21" PMx="0.07" fuel="1.13" electricity="0.00" noise="60.08" route="routeleft_0" type="human" waiting="0.10" lane="left_0" pos="30.98" speed="0.09" angle="135.53" x="9.16" y="5.61"/>
        <vehicle id="human_33" eclass="HBEFA3/PC_G_EU4" CO2="2635.26" CO="163.35" HC="0.81" NOx="1.21" PMx="0.07" fuel="1.13" electricity="0.00" noise="60.07" route="routeleft_0" type="human" waiting="0.10" lane="left_1" pos="32.26" speed="0.09" angle="133.38" x="12.31" y="7.14"/>
        <vehicle id="human_34" eclass="HBEFA3/PC_G_EU4" CO2="2635.63" CO="163.34" HC="0.81" NOx="1.21" PMx="0.07" fuel="1.13" electricity="0.00" noise="60.11" route="routeleft_0" type="human" waiting="0.10" lane="left_0" pos="44.37" speed="0.09" angle="114.61" x="22.03" y="-2.14"/>
        <vehicle id="human_35" eclass="HBEFA3/PC_G_EU4" CO2="2634.76" CO="163.37" HC="0.81" NOx="1.21" PMx="0.07" fuel="1.13" electricity="0.00" noise="60.00" route="routeleft_0" type="human" waiting="0.10" lane="left_1" pos="45.36" speed="0.09" angle="112.97" x="24.16" y="0.50"/>
        <vehicle id="human_4" eclass="HBEFA3/PC_G_EU4" CO2="2633.96" CO="163.39" HC="0.81" NOx="1.21" PMx="0.07" fuel="1.13" electricity="0.00" noise="59.90" route="routebottom_0" type="human" waiting="0.10" lane="bottom_0" pos="25.27" speed="0.09" angle="54.30" x="62.98" y="4.70"/>
        <vehicle id="human_5" eclass="HBEFA3/PC_G_EU4" CO2="2635.81" CO="163.34" HC="0.81" NOx="1.21" PMx="0.07" fuel="1.13" electricity="0.00" noise="60.13" route="routebottom_0" type="human" waiting="0.10" lane="bottom_1" pos="24.43" speed="0.09" angle="55.59" x="60.25" y="6.61"/>
        <vehicle id="human_6" eclass="HBEFA3/PC_G_EU4" CO2="2635.69" CO="163.34" HC="0.81" NOx="1.21" PMx="0.07" fuel="1.13" electricity="0.00" noise="60.12" route="routebottom_0" type="human" waiting="0.10" lane="bottom_0" pos="36.63" speed="0.09" angle="36.65" x="71.45" y="14.25"/>
        <vehicle id="human_7" eclass="HBEFA3/PC_G_EU4" CO2="2635.57" CO="163.35" HC="0.81" NOx="1.21" PMx="0.07" fuel="1.13" electricity="0.00" noise="60.10" route="routebottom_0" type="human" waiting="0.10" lane="bottom_1" pos="38.81" speed="0.09" angle="33.18" x="69.93" y="17.93"/>
        <vehicle id="human_8" eclass="HBEFA3/PC_G_EU4" CO2="2635.88" CO="163.34" HC="0.81" NOx="1.21" PMx="0.07" fuel="1.13" electricity="0.00" noise="60.14" route="routebottom_0" type="human" waiting="0.10" lane="bottom_0" pos="50.68" speed="0.09" angle="14.62" x="77.28" y="28.87"/>
        <vehicle id="human_9" eclass="HBEFA3/PC_G_EU4" CO2="2632.58" CO="163.44" HC="0.81" NOx="1.21" PMx="0.07" fuel="1.13" electricity="0.00" noise="59.71" route="routebottom_0" type="human" waiting="0.10" lane="bottom_1" pos="52.55" speed="0.08" angle="11.68" x="74.46" y="31.44"/>
    </timestep>
    <timestep time="0.30">
        <vehicle id="human_0" eclass="HBEFA3/PC_G_EU4" CO2="2642.58" CO="162.03" HC="0.80" NOx="1.21" PMx="0.07" fuel="1.14" electricity="0.00" noise="59.88" route="routebottom_0" type="human" waiting="0.00" lane="bottom_0" pos="0.63" speed="0.18" angle="92.84" x="37.42" y="-4.79"/>
        <vehicle id="human_1" eclass="HBEFA3/PC_G_EU4" CO2="2646.30" CO="161.93" HC="0.80" NOx="1.21" PMx="0.07" fuel="1.14" electricity="0.00" noise="60.12" route="routebottom_0" type="human" waiting="0.00" lane="bottom_1" pos="0.03" speed="0.19" angle="93.83" x="36.67" y="-1.60"/>
        <vehicle id="human_10" eclass="HBEFA3/PC_G_EU4" CO2="2642.35" CO="162.04" HC="0.80" NOx="1.21" PMx="0.07" fuel="1.14" electricity="0.00" noise="59.86" route="routeright_0" type="human" waiting="0.00" lane="right_0" pos="7.61" speed="0.18" angle="351.87" x="77.10" y="45.23"/>
        <vehicle id="human_11" eclass="HBEFA3/PC_G_EU4" CO2="2645.55" CO="161.95" HC="0.80" NOx="1.21" PMx="0.07" fuel="1.14" electricity="0.00" noise="60.07" route="routeright_0" type="human" waiting="0.00" lane="right_1" pos="5.23" speed="0.19" angle="355.60" x="74.42" y="42.08"/>
        <vehicle id="human_12" eclass="HBEFA3/PC_G_EU4" CO2="2645.22" CO="161.96" HC="0.80" NOx="1.21" PMx="0.07" fuel="1.14" electricity="0.00" noise="60.05" route="routeright_0" type="human" waiting="0.00" lane="right_0" pos="18.78" speed="0.18" angle="334.47" x="72.66" y="56.96"/>
        <vehicle id="human_13" eclass="HBEFA3/PC_G_EU4" CO2="2646.56" CO="161.92" HC="0.80" NOx="1.21" PMx="0.07" fuel="1.14" electricity="0.00" noise="60.14" route="routeright_0" type="human" waiting="0.00" lane="right_1" pos="18.30" speed="0.19" angle="335.13" x="70.13" y="54.93"/>
        <vehicle id="human_14" eclass="HBEFA3/PC_G_EU4" CO2="2646.02" CO="161.93" HC="0.80" NOx="1.21" PMx="0.07" fuel="1.14" electricity="0.00" noise="60.10" route="routeright_0" type="human" waiting="0.00" lane="right_0" pos="31.57" speed="0.19" angle="314.40" x="63.55" y="68.04"/>
        <vehicle id="human_15" eclass="HBEFA3/PC_G_EU4" CO2="2642.97" CO="162.02" HC="0.80" NOx="1.21" PMx="0.07" fuel="1.14" electricity="0.00" noise="59.90" route="routeright_0" type="human" waiting="0.00" lane="right_1" pos="32.40" speed="0.18" angle="313.18" x="60.80" y="66.17"/>
        <vehicle id="human_16" eclass="HBEFA3/PC_G_EU4" CO2="2644.29" CO="161.98" HC="0.80" NOx="1.21" PMx="0.07" fuel="1.14" electricity="0.00" noise="59.99" route="routeright_0" type="human" waiting="0.00" lane="right_0" pos="45.07" speed="0.18" angle="293.43" x="50.45" y="75.63"/>
        <vehicle id="human_17" eclass="HBEFA3/PC_G_EU4" CO2="2646.20" CO="161.93" HC="0.80" NOx="1.21" PMx="0.07" fuel="1.14" electricity="0.00" noise="60.11" route="routeright_0" type="human" waiting="0.00" lane="right_1" pos="43.84" speed="0.19" angle="295.36" x="50.56" y="72.18"/>
        <vehicle id="human_18" eclass="HBEFA3/PC_G_EU4" CO2="2645.08" CO="161.96" HC="0.80" NOx="1.21" PMx="0.07" fuel="1.14" electricity="0.00" noise="60.04" route="routeright_0" type="human" waiting="0.00" lane="right_0" pos="57.22" speed="0.18" angle="274.57" x="37.03" y="78.01"/>
        <vehicle id="human_19" eclass="HBEFA3/PC_G_EU4" CO2="2759.60" CO="162.17" HC="0.80" NOx="1.26" PMx="0.07" fuel="1.19" electricity="0.00" noise="65.62" route="routeright_0" type="human" waiting="0.00" lane=":top_0_1" pos="0.04" speed="0.31" angle="274.01" x="36.61" y="74.82"/>
        <vehicle id="human_2" eclass="HBEFA3/PC_G_EU4" CO2="2645.91" CO="161.94" HC="0.80" NOx="1.21" PMx="0.07" fuel="1.14" electricity="0.00" noise="60.10" route="routebottom_0" type="human" waiting="0.00" lane="bottom_0" pos="11.89" speed="0.19" angle="75.25" x="49.88" y="-2.61"/>
        <vehicle id="human_20" eclass="HBEFA3/PC_G_EU4" CO2="2644.81" CO="161.97" HC="0.80" NOx="1.21" PMx="0.07" fuel="1.14" electricity="0.00" noise="60.03" route="routetop_0" type="human" waiting="0.00" lane="top_0" pos="12.25" speed="0.18" angle="254.58" x="22.96" y="75.69"/>
        <vehicle id="human_21" eclass="HBEFA3/PC_G_EU4" CO2="2645.74" CO="161.94" HC="0.80" NOx="1.21" PMx="0.07" fuel="1.14" electricity="0.00" noise="60.08" route="routetop_0" type="human" waiting="0.00" lane="top_1" pos="11.28" speed="0.19" angle="256.20" x="25.01" y="73.00"/>
        <vehicle id="human_22" eclass="HBEFA3/PC_G_EU4" CO2="2646.74" CO="161.91" HC="0.80" NOx="1.21" PMx="0.07" fuel="1.14" electricity="0.00" noise="60.15" route="routetop_0" type="human" waiting="0.00" lane="top_0" pos="24.74" speed="0.19" angle="235.12" x="10.70" y="68.89"/>
        <vehicle id="human_23" eclass="HBEFA3/PC_G_EU4" CO2="2646.11" CO="161.93" HC="0.80" NOx="1.21" PMx="0.07" fuel="1.14" electricity="0.00" noise="60.11" route="routetop_0" type="human" waiting="0.00" lane="top_1" pos="24.52" speed="0.19" angle="235.46" x="12.89" y="66.55"/>
        <vehicle id="human_24" eclass="HBEFA3/PC_G_EU4" CO2="2644.04" CO="161.99" HC="0.80" NOx="1.21" PMx="0.07" fuel="1.14" electricity="0.00" noise="59.97" route="routetop_0" type="human" waiting="0.00" lane="top_0" pos="39.08" speed="0.18" angle="212.77" x="0.36" y="56.61"/>
        <vehicle id="human_25" eclass="HBEFA3/PC_G_EU4" CO2="2644.42" CO="161.98" HC="0.80" NOx="1.21" PMx="0.07" fuel="1.14" electricity="0.00" noise="60.00" route="routetop_0" type="human" waiting="0.00" lane="top_1" pos="38.12" speed="0.18" angle="214.35" x="3.65" y="55.92"/>
        <vehicle id="human_26" eclass="HBEFA3/PC_G_EU4" CO2="2645.14" CO="161.96" HC="0.80" NOx="1.21" PMx="0.07" fuel="1.14" electricity="0.00" noise="60.05" route="routetop_0" type="human" waiting="0.00" lane="top_0" pos="51.07" speed="0.18" angle="194.04" x="-4.14" y="43.92"/>
        <vehicle id="human_27" eclass="HBEFA3/PC_G_EU4" CO2="2646.11" CO="161.93" HC="0.80" NOx="1.21" PMx="0.07" fuel="1.14" electricity="0.00" noise="60.11" route="routetop_0" type="human" waiting="0.00" lane="top_1" pos="50.34" speed="0.19" angle="195.24" x="-0.86" y="44.06"/>
        <vehicle id="human_28" eclass="HBEFA3/PC_G_EU4" CO2="2645.04" CO="161.96" HC="0.80" NOx="1.21" PMx="0.07" fuel="1.14" electricity="0.00" noise="60.04" route="routeleft_0" type="human" waiting="0.00" lane="left_0" pos="6.15" speed="0.18" angle="174.07" x="-4.19" y="29.61"/>
        <vehicle id="human_29" eclass="HBEFA3/PC_G_EU4" CO2="2645.29" CO="161.95" HC="0.80" NOx="1.21" PMx="0.07" fuel="1.14" electricity="0.00" noise="60.06" route="routeleft_0" type="human" waiting="0.00" lane="left_1" pos="6.29" speed="0.18" angle="173.95" x="-1.02" y="30.05"/>
        <vehicle id="human_3" eclass="HBEFA3/PC_G_EU4" CO2="2640.89" CO="162.09" HC="0.80" NOx="1.21" PMx="0.07" fuel="1.14" electricity="0.00" noise="59.76" route="routebottom_0" type="human" waiting="0.00" lane="bottom_1" pos="13.83" speed="0.17" angle="72.24" x="50.71" y="1.11"/>
        <vehicle id="human_30" eclass="HBEFA3/PC_G_EU4" CO2="2644.36" CO="161.98" HC="0.80" NOx="1.21" PMx="0.07" fuel="1.14" electricity="0.00" noise="60.00" route="routeleft_0" type="human" waiting="0.00" lane="left_0" pos="18.81" speed="0.18" angle="154.42" x="0.57" y="16.23"/>
        <vehicle id="human_31" eclass="HBEFA3/PC_G_EU4" CO2="2645.63" CO="161.94" HC="0.80" NOx="1.21" PMx="0.07" fuel="1.14" electricity="0.00" noise="60.08" route="routeleft_0" type="human" waiting="0.00" lane="left_1" pos="19.15" speed="0.19" angle="153.98" x="3.52" y="17.52"/>
        <vehicle id="human_32" eclass="HBEFA3/PC_G_EU4" CO2="2645.91" CO="161.94" HC="0.80" NOx="1.21" PMx="0.07" fuel="1.14" electricity="0.00" noise="60.10" route="routeleft_0" type="human" waiting="0.00" lane="left_0" pos="31.00" speed="0.19" angle="135.50" x="9.18" y="5.60"/>